version 2
run FatTreeTopology-0-20150309-13:08:12-16424
attr configname FatTreeTopology
attr datetime 20150309-13:08:12
attr experiment FatTreeTopology
attr inifile omnetpp.ini
attr iterationvars ""
attr iterationvars2 $repetition=0
attr measurement ""
attr network FatTreeTopologyPref
attr processid 16424
attr repetition 0
attr replication #0
attr resultdir results
attr runnumber 0
attr seedset 0

vector 474  FatTreeTopologyPref.AS1.ipcProcess[2].flowAllocator.faiTable  ft-size:vector  ETV
attr source  FT_FlowTableSize
attr title  "FlowTable Size, vector"
vector 478  FatTreeTopologyPref.AS2.ipcProcess[2].flowAllocator.faiTable  ft-size:vector  ETV
attr source  FT_FlowTableSize
attr title  "FlowTable Size, vector"
vector 480  FatTreeTopologyPref.TOR1.ipcProcess[0].flowAllocator.faiTable  ft-size:vector  ETV
attr source  FT_FlowTableSize
attr title  "FlowTable Size, vector"
vector 481  FatTreeTopologyPref.TOR1.ipcProcess[1].flowAllocator.faiTable  ft-size:vector  ETV
attr source  FT_FlowTableSize
attr title  "FlowTable Size, vector"
vector 486  FatTreeTopologyPref.TOR2.ipcProcess[0].flowAllocator.faiTable  ft-size:vector  ETV
attr source  FT_FlowTableSize
attr title  "FlowTable Size, vector"
vector 487  FatTreeTopologyPref.TOR2.ipcProcess[1].flowAllocator.faiTable  ft-size:vector  ETV
attr source  FT_FlowTableSize
attr title  "FlowTable Size, vector"
vector 492  FatTreeTopologyPref.Server11.ipcProcess0.flowAllocator.faiTable  ft-size:vector  ETV
attr source  FT_FlowTableSize
attr title  "FlowTable Size, vector"
vector 494  FatTreeTopologyPref.Server12.ipcProcess0.flowAllocator.faiTable  ft-size:vector  ETV
attr source  FT_FlowTableSize
attr title  "FlowTable Size, vector"
vector 496  FatTreeTopologyPref.Server21.ipcProcess0.flowAllocator.faiTable  ft-size:vector  ETV
attr source  FT_FlowTableSize
attr title  "FlowTable Size, vector"
vector 498  FatTreeTopologyPref.Server23.ipcProcess0.flowAllocator.faiTable  ft-size:vector  ETV
attr source  FT_FlowTableSize
attr title  "FlowTable Size, vector"
vector 500  FatTreeTopologyPref.Server13.ipcProcess0.flowAllocator.faiTable  ft-size:vector  ETV
attr source  FT_FlowTableSize
attr title  "FlowTable Size, vector"
vector 502  FatTreeTopologyPref.Server22.ipcProcess0.flowAllocator.faiTable  ft-size:vector  ETV
attr source  FT_FlowTableSize
attr title  "FlowTable Size, vector"
vector 506  FatTreeTopologyPref.AS3.ipcProcess[2].flowAllocator.faiTable  ft-size:vector  ETV
attr source  FT_FlowTableSize
attr title  "FlowTable Size, vector"
vector 510  FatTreeTopologyPref.AS4.ipcProcess[2].flowAllocator.faiTable  ft-size:vector  ETV
attr source  FT_FlowTableSize
attr title  "FlowTable Size, vector"
vector 512  FatTreeTopologyPref.Server31.ipcProcess0.flowAllocator.faiTable  ft-size:vector  ETV
attr source  FT_FlowTableSize
attr title  "FlowTable Size, vector"
vector 514  FatTreeTopologyPref.Server32.ipcProcess0.flowAllocator.faiTable  ft-size:vector  ETV
attr source  FT_FlowTableSize
attr title  "FlowTable Size, vector"
vector 516  FatTreeTopologyPref.Server33.ipcProcess0.flowAllocator.faiTable  ft-size:vector  ETV
attr source  FT_FlowTableSize
attr title  "FlowTable Size, vector"
vector 518  FatTreeTopologyPref.Server41.ipcProcess0.flowAllocator.faiTable  ft-size:vector  ETV
attr source  FT_FlowTableSize
attr title  "FlowTable Size, vector"
vector 520  FatTreeTopologyPref.Server42.ipcProcess0.flowAllocator.faiTable  ft-size:vector  ETV
attr source  FT_FlowTableSize
attr title  "FlowTable Size, vector"
vector 522  FatTreeTopologyPref.Server43.ipcProcess0.flowAllocator.faiTable  ft-size:vector  ETV
attr source  FT_FlowTableSize
attr title  "FlowTable Size, vector"
vector 524  FatTreeTopologyPref.TOR3.ipcProcess[0].flowAllocator.faiTable  ft-size:vector  ETV
attr source  FT_FlowTableSize
attr title  "FlowTable Size, vector"
vector 525  FatTreeTopologyPref.TOR3.ipcProcess[1].flowAllocator.faiTable  ft-size:vector  ETV
attr source  FT_FlowTableSize
attr title  "FlowTable Size, vector"
vector 530  FatTreeTopologyPref.TOR4.ipcProcess[0].flowAllocator.faiTable  ft-size:vector  ETV
attr source  FT_FlowTableSize
attr title  "FlowTable Size, vector"
vector 531  FatTreeTopologyPref.TOR4.ipcProcess[1].flowAllocator.faiTable  ft-size:vector  ETV
attr source  FT_FlowTableSize
attr title  "FlowTable Size, vector"
vector 538  FatTreeTopologyPref.AS5.ipcProcess[2].flowAllocator.faiTable  ft-size:vector  ETV
attr source  FT_FlowTableSize
attr title  "FlowTable Size, vector"
vector 553  FatTreeTopologyPref.AS1.ipcProcess[2].relayAndMux.p0.outQ_M  rmtqueue-size:vector  ETV
attr source  RMTQueue_Length
attr title  "RMTQueue Size, vector"
vector 565  FatTreeTopologyPref.AS2.ipcProcess[2].relayAndMux.p0.outQ_M  rmtqueue-size:vector  ETV
attr source  RMTQueue_Length
attr title  "RMTQueue Size, vector"
vector 569  FatTreeTopologyPref.TOR1.ipcProcess[0].relayAndMux.p0.outQ_M  rmtqueue-size:vector  ETV
attr source  RMTQueue_Length
attr title  "RMTQueue Size, vector"
vector 573  FatTreeTopologyPref.TOR1.ipcProcess[1].relayAndMux.p0.outQ_M  rmtqueue-size:vector  ETV
attr source  RMTQueue_Length
attr title  "RMTQueue Size, vector"
vector 589  FatTreeTopologyPref.TOR2.ipcProcess[0].relayAndMux.p0.outQ_M  rmtqueue-size:vector  ETV
attr source  RMTQueue_Length
attr title  "RMTQueue Size, vector"
vector 593  FatTreeTopologyPref.TOR2.ipcProcess[1].relayAndMux.p0.outQ_M  rmtqueue-size:vector  ETV
attr source  RMTQueue_Length
attr title  "RMTQueue Size, vector"
vector 609  FatTreeTopologyPref.Server11.ipcProcess0.relayAndMux.p0.outQ_M  rmtqueue-size:vector  ETV
attr source  RMTQueue_Length
attr title  "RMTQueue Size, vector"
vector 613  FatTreeTopologyPref.Server12.ipcProcess0.relayAndMux.p0.outQ_M  rmtqueue-size:vector  ETV
attr source  RMTQueue_Length
attr title  "RMTQueue Size, vector"
vector 617  FatTreeTopologyPref.Server21.ipcProcess0.relayAndMux.p0.outQ_M  rmtqueue-size:vector  ETV
attr source  RMTQueue_Length
attr title  "RMTQueue Size, vector"
vector 621  FatTreeTopologyPref.Server23.ipcProcess0.relayAndMux.p0.outQ_M  rmtqueue-size:vector  ETV
attr source  RMTQueue_Length
attr title  "RMTQueue Size, vector"
vector 625  FatTreeTopologyPref.Server13.ipcProcess0.relayAndMux.p0.outQ_M  rmtqueue-size:vector  ETV
attr source  RMTQueue_Length
attr title  "RMTQueue Size, vector"
vector 629  FatTreeTopologyPref.Server22.ipcProcess0.relayAndMux.p0.outQ_M  rmtqueue-size:vector  ETV
attr source  RMTQueue_Length
attr title  "RMTQueue Size, vector"
vector 641  FatTreeTopologyPref.AS3.ipcProcess[2].relayAndMux.p0.outQ_M  rmtqueue-size:vector  ETV
attr source  RMTQueue_Length
attr title  "RMTQueue Size, vector"
vector 653  FatTreeTopologyPref.AS4.ipcProcess[2].relayAndMux.p0.outQ_M  rmtqueue-size:vector  ETV
attr source  RMTQueue_Length
attr title  "RMTQueue Size, vector"
vector 657  FatTreeTopologyPref.Server31.ipcProcess0.relayAndMux.p0.outQ_M  rmtqueue-size:vector  ETV
attr source  RMTQueue_Length
attr title  "RMTQueue Size, vector"
vector 661  FatTreeTopologyPref.Server32.ipcProcess0.relayAndMux.p0.outQ_M  rmtqueue-size:vector  ETV
attr source  RMTQueue_Length
attr title  "RMTQueue Size, vector"
vector 665  FatTreeTopologyPref.Server33.ipcProcess0.relayAndMux.p0.outQ_M  rmtqueue-size:vector  ETV
attr source  RMTQueue_Length
attr title  "RMTQueue Size, vector"
vector 669  FatTreeTopologyPref.Server41.ipcProcess0.relayAndMux.p0.outQ_M  rmtqueue-size:vector  ETV
attr source  RMTQueue_Length
attr title  "RMTQueue Size, vector"
vector 673  FatTreeTopologyPref.Server42.ipcProcess0.relayAndMux.p0.outQ_M  rmtqueue-size:vector  ETV
attr source  RMTQueue_Length
attr title  "RMTQueue Size, vector"
vector 677  FatTreeTopologyPref.Server43.ipcProcess0.relayAndMux.p0.outQ_M  rmtqueue-size:vector  ETV
attr source  RMTQueue_Length
attr title  "RMTQueue Size, vector"
vector 681  FatTreeTopologyPref.TOR3.ipcProcess[0].relayAndMux.p0.outQ_M  rmtqueue-size:vector  ETV
attr source  RMTQueue_Length
attr title  "RMTQueue Size, vector"
vector 685  FatTreeTopologyPref.TOR3.ipcProcess[1].relayAndMux.p0.outQ_M  rmtqueue-size:vector  ETV
attr source  RMTQueue_Length
attr title  "RMTQueue Size, vector"
vector 701  FatTreeTopologyPref.TOR4.ipcProcess[0].relayAndMux.p0.outQ_M  rmtqueue-size:vector  ETV
attr source  RMTQueue_Length
attr title  "RMTQueue Size, vector"
vector 705  FatTreeTopologyPref.TOR4.ipcProcess[1].relayAndMux.p0.outQ_M  rmtqueue-size:vector  ETV
attr source  RMTQueue_Length
attr title  "RMTQueue Size, vector"
vector 729  FatTreeTopologyPref.AS5.ipcProcess[2].relayAndMux.p0.outQ_M  rmtqueue-size:vector  ETV
attr source  RMTQueue_Length
attr title  "RMTQueue Size, vector"
vector 720  FatTreeTopologyPref.AS5.ipcProcess[0].relayAndMux.p0.inQ_M  rmtqueue-size:vector  ETV
attr source  RMTQueue_Length
attr title  "RMTQueue Size, vector"
vector 732  FatTreeTopologyPref.AS6.ipcProcess[0].relayAndMux.p0.inQ_M  rmtqueue-size:vector  ETV
attr source  RMTQueue_Length
attr title  "RMTQueue Size, vector"
vector 544  FatTreeTopologyPref.AS1.ipcProcess[0].relayAndMux.p0.inQ_M  rmtqueue-size:vector  ETV
attr source  RMTQueue_Length
attr title  "RMTQueue Size, vector"
vector 556  FatTreeTopologyPref.AS2.ipcProcess[0].relayAndMux.p0.inQ_M  rmtqueue-size:vector  ETV
attr source  RMTQueue_Length
attr title  "RMTQueue Size, vector"
vector 548  FatTreeTopologyPref.AS1.ipcProcess[1].relayAndMux.p0.inQ_M  rmtqueue-size:vector  ETV
attr source  RMTQueue_Length
attr title  "RMTQueue Size, vector"
vector 560  FatTreeTopologyPref.AS2.ipcProcess[1].relayAndMux.p0.inQ_M  rmtqueue-size:vector  ETV
attr source  RMTQueue_Length
attr title  "RMTQueue Size, vector"
vector 576  FatTreeTopologyPref.TOR1.ipcProcess[2].relayAndMux.p0.inQ_M  rmtqueue-size:vector  ETV
attr source  RMTQueue_Length
attr title  "RMTQueue Size, vector"
vector 580  FatTreeTopologyPref.TOR1.ipcProcess[3].relayAndMux.p0.inQ_M  rmtqueue-size:vector  ETV
attr source  RMTQueue_Length
attr title  "RMTQueue Size, vector"
vector 596  FatTreeTopologyPref.TOR2.ipcProcess[2].relayAndMux.p0.inQ_M  rmtqueue-size:vector  ETV
attr source  RMTQueue_Length
attr title  "RMTQueue Size, vector"
vector 604  FatTreeTopologyPref.TOR2.ipcProcess[4].relayAndMux.p0.inQ_M  rmtqueue-size:vector  ETV
attr source  RMTQueue_Length
attr title  "RMTQueue Size, vector"
vector 584  FatTreeTopologyPref.TOR1.ipcProcess[4].relayAndMux.p0.inQ_M  rmtqueue-size:vector  ETV
attr source  RMTQueue_Length
attr title  "RMTQueue Size, vector"
vector 600  FatTreeTopologyPref.TOR2.ipcProcess[3].relayAndMux.p0.inQ_M  rmtqueue-size:vector  ETV
attr source  RMTQueue_Length
attr title  "RMTQueue Size, vector"
vector 724  FatTreeTopologyPref.AS5.ipcProcess[1].relayAndMux.p0.inQ_M  rmtqueue-size:vector  ETV
attr source  RMTQueue_Length
attr title  "RMTQueue Size, vector"
vector 736  FatTreeTopologyPref.AS6.ipcProcess[1].relayAndMux.p0.inQ_M  rmtqueue-size:vector  ETV
attr source  RMTQueue_Length
attr title  "RMTQueue Size, vector"
vector 688  FatTreeTopologyPref.TOR3.ipcProcess[2].relayAndMux.p0.inQ_M  rmtqueue-size:vector  ETV
attr source  RMTQueue_Length
attr title  "RMTQueue Size, vector"
vector 692  FatTreeTopologyPref.TOR3.ipcProcess[3].relayAndMux.p0.inQ_M  rmtqueue-size:vector  ETV
attr source  RMTQueue_Length
attr title  "RMTQueue Size, vector"
vector 696  FatTreeTopologyPref.TOR3.ipcProcess[4].relayAndMux.p0.inQ_M  rmtqueue-size:vector  ETV
attr source  RMTQueue_Length
attr title  "RMTQueue Size, vector"
vector 708  FatTreeTopologyPref.TOR4.ipcProcess[2].relayAndMux.p0.inQ_M  rmtqueue-size:vector  ETV
attr source  RMTQueue_Length
attr title  "RMTQueue Size, vector"
vector 712  FatTreeTopologyPref.TOR4.ipcProcess[3].relayAndMux.p0.inQ_M  rmtqueue-size:vector  ETV
attr source  RMTQueue_Length
attr title  "RMTQueue Size, vector"
vector 716  FatTreeTopologyPref.TOR4.ipcProcess[4].relayAndMux.p0.inQ_M  rmtqueue-size:vector  ETV
attr source  RMTQueue_Length
attr title  "RMTQueue Size, vector"
vector 632  FatTreeTopologyPref.AS3.ipcProcess[0].relayAndMux.p0.inQ_M  rmtqueue-size:vector  ETV
attr source  RMTQueue_Length
attr title  "RMTQueue Size, vector"
vector 644  FatTreeTopologyPref.AS4.ipcProcess[0].relayAndMux.p0.inQ_M  rmtqueue-size:vector  ETV
attr source  RMTQueue_Length
attr title  "RMTQueue Size, vector"
vector 636  FatTreeTopologyPref.AS3.ipcProcess[1].relayAndMux.p0.inQ_M  rmtqueue-size:vector  ETV
attr source  RMTQueue_Length
attr title  "RMTQueue Size, vector"
vector 648  FatTreeTopologyPref.AS4.ipcProcess[1].relayAndMux.p0.inQ_M  rmtqueue-size:vector  ETV
attr source  RMTQueue_Length
attr title  "RMTQueue Size, vector"
vector 740  FatTreeTopologyPref.AS6.ipcProcess[2].relayAndMux.p0.inQ_M  rmtqueue-size:vector  ETV
attr source  RMTQueue_Length
attr title  "RMTQueue Size, vector"
vector 536  FatTreeTopologyPref.AS5.ipcProcess[0].flowAllocator.faiTable  ft-size:vector  ETV
attr source  FT_FlowTableSize
attr title  "FlowTable Size, vector"
vector 540  FatTreeTopologyPref.AS6.ipcProcess[0].flowAllocator.faiTable  ft-size:vector  ETV
attr source  FT_FlowTableSize
attr title  "FlowTable Size, vector"
vector 472  FatTreeTopologyPref.AS1.ipcProcess[0].flowAllocator.faiTable  ft-size:vector  ETV
attr source  FT_FlowTableSize
attr title  "FlowTable Size, vector"
vector 476  FatTreeTopologyPref.AS2.ipcProcess[0].flowAllocator.faiTable  ft-size:vector  ETV
attr source  FT_FlowTableSize
attr title  "FlowTable Size, vector"
vector 473  FatTreeTopologyPref.AS1.ipcProcess[1].flowAllocator.faiTable  ft-size:vector  ETV
attr source  FT_FlowTableSize
attr title  "FlowTable Size, vector"
vector 477  FatTreeTopologyPref.AS2.ipcProcess[1].flowAllocator.faiTable  ft-size:vector  ETV
attr source  FT_FlowTableSize
attr title  "FlowTable Size, vector"
vector 482  FatTreeTopologyPref.TOR1.ipcProcess[2].flowAllocator.faiTable  ft-size:vector  ETV
attr source  FT_FlowTableSize
attr title  "FlowTable Size, vector"
vector 483  FatTreeTopologyPref.TOR1.ipcProcess[3].flowAllocator.faiTable  ft-size:vector  ETV
attr source  FT_FlowTableSize
attr title  "FlowTable Size, vector"
vector 488  FatTreeTopologyPref.TOR2.ipcProcess[2].flowAllocator.faiTable  ft-size:vector  ETV
attr source  FT_FlowTableSize
attr title  "FlowTable Size, vector"
vector 490  FatTreeTopologyPref.TOR2.ipcProcess[4].flowAllocator.faiTable  ft-size:vector  ETV
attr source  FT_FlowTableSize
attr title  "FlowTable Size, vector"
vector 484  FatTreeTopologyPref.TOR1.ipcProcess[4].flowAllocator.faiTable  ft-size:vector  ETV
attr source  FT_FlowTableSize
attr title  "FlowTable Size, vector"
vector 489  FatTreeTopologyPref.TOR2.ipcProcess[3].flowAllocator.faiTable  ft-size:vector  ETV
attr source  FT_FlowTableSize
attr title  "FlowTable Size, vector"
vector 537  FatTreeTopologyPref.AS5.ipcProcess[1].flowAllocator.faiTable  ft-size:vector  ETV
attr source  FT_FlowTableSize
attr title  "FlowTable Size, vector"
vector 541  FatTreeTopologyPref.AS6.ipcProcess[1].flowAllocator.faiTable  ft-size:vector  ETV
attr source  FT_FlowTableSize
attr title  "FlowTable Size, vector"
vector 526  FatTreeTopologyPref.TOR3.ipcProcess[2].flowAllocator.faiTable  ft-size:vector  ETV
attr source  FT_FlowTableSize
attr title  "FlowTable Size, vector"
vector 527  FatTreeTopologyPref.TOR3.ipcProcess[3].flowAllocator.faiTable  ft-size:vector  ETV
attr source  FT_FlowTableSize
attr title  "FlowTable Size, vector"
vector 528  FatTreeTopologyPref.TOR3.ipcProcess[4].flowAllocator.faiTable  ft-size:vector  ETV
attr source  FT_FlowTableSize
attr title  "FlowTable Size, vector"
vector 532  FatTreeTopologyPref.TOR4.ipcProcess[2].flowAllocator.faiTable  ft-size:vector  ETV
attr source  FT_FlowTableSize
attr title  "FlowTable Size, vector"
vector 533  FatTreeTopologyPref.TOR4.ipcProcess[3].flowAllocator.faiTable  ft-size:vector  ETV
attr source  FT_FlowTableSize
attr title  "FlowTable Size, vector"
vector 534  FatTreeTopologyPref.TOR4.ipcProcess[4].flowAllocator.faiTable  ft-size:vector  ETV
attr source  FT_FlowTableSize
attr title  "FlowTable Size, vector"
vector 504  FatTreeTopologyPref.AS3.ipcProcess[0].flowAllocator.faiTable  ft-size:vector  ETV
attr source  FT_FlowTableSize
attr title  "FlowTable Size, vector"
vector 508  FatTreeTopologyPref.AS4.ipcProcess[0].flowAllocator.faiTable  ft-size:vector  ETV
attr source  FT_FlowTableSize
attr title  "FlowTable Size, vector"
vector 505  FatTreeTopologyPref.AS3.ipcProcess[1].flowAllocator.faiTable  ft-size:vector  ETV
attr source  FT_FlowTableSize
attr title  "FlowTable Size, vector"
vector 509  FatTreeTopologyPref.AS4.ipcProcess[1].flowAllocator.faiTable  ft-size:vector  ETV
attr source  FT_FlowTableSize
attr title  "FlowTable Size, vector"
vector 542  FatTreeTopologyPref.AS6.ipcProcess[2].flowAllocator.faiTable  ft-size:vector  ETV
attr source  FT_FlowTableSize
attr title  "FlowTable Size, vector"
vector 721  FatTreeTopologyPref.AS5.ipcProcess[0].relayAndMux.p0.outQ_M  rmtqueue-size:vector  ETV
attr source  RMTQueue_Length
attr title  "RMTQueue Size, vector"
vector 733  FatTreeTopologyPref.AS6.ipcProcess[0].relayAndMux.p0.outQ_M  rmtqueue-size:vector  ETV
attr source  RMTQueue_Length
attr title  "RMTQueue Size, vector"
vector 545  FatTreeTopologyPref.AS1.ipcProcess[0].relayAndMux.p0.outQ_M  rmtqueue-size:vector  ETV
attr source  RMTQueue_Length
attr title  "RMTQueue Size, vector"
vector 557  FatTreeTopologyPref.AS2.ipcProcess[0].relayAndMux.p0.outQ_M  rmtqueue-size:vector  ETV
attr source  RMTQueue_Length
attr title  "RMTQueue Size, vector"
vector 549  FatTreeTopologyPref.AS1.ipcProcess[1].relayAndMux.p0.outQ_M  rmtqueue-size:vector  ETV
attr source  RMTQueue_Length
attr title  "RMTQueue Size, vector"
vector 561  FatTreeTopologyPref.AS2.ipcProcess[1].relayAndMux.p0.outQ_M  rmtqueue-size:vector  ETV
attr source  RMTQueue_Length
attr title  "RMTQueue Size, vector"
vector 577  FatTreeTopologyPref.TOR1.ipcProcess[2].relayAndMux.p0.outQ_M  rmtqueue-size:vector  ETV
attr source  RMTQueue_Length
attr title  "RMTQueue Size, vector"
vector 581  FatTreeTopologyPref.TOR1.ipcProcess[3].relayAndMux.p0.outQ_M  rmtqueue-size:vector  ETV
attr source  RMTQueue_Length
attr title  "RMTQueue Size, vector"
vector 597  FatTreeTopologyPref.TOR2.ipcProcess[2].relayAndMux.p0.outQ_M  rmtqueue-size:vector  ETV
attr source  RMTQueue_Length
attr title  "RMTQueue Size, vector"
vector 605  FatTreeTopologyPref.TOR2.ipcProcess[4].relayAndMux.p0.outQ_M  rmtqueue-size:vector  ETV
attr source  RMTQueue_Length
attr title  "RMTQueue Size, vector"
vector 585  FatTreeTopologyPref.TOR1.ipcProcess[4].relayAndMux.p0.outQ_M  rmtqueue-size:vector  ETV
attr source  RMTQueue_Length
attr title  "RMTQueue Size, vector"
vector 601  FatTreeTopologyPref.TOR2.ipcProcess[3].relayAndMux.p0.outQ_M  rmtqueue-size:vector  ETV
attr source  RMTQueue_Length
attr title  "RMTQueue Size, vector"
vector 725  FatTreeTopologyPref.AS5.ipcProcess[1].relayAndMux.p0.outQ_M  rmtqueue-size:vector  ETV
attr source  RMTQueue_Length
attr title  "RMTQueue Size, vector"
vector 737  FatTreeTopologyPref.AS6.ipcProcess[1].relayAndMux.p0.outQ_M  rmtqueue-size:vector  ETV
attr source  RMTQueue_Length
attr title  "RMTQueue Size, vector"
vector 689  FatTreeTopologyPref.TOR3.ipcProcess[2].relayAndMux.p0.outQ_M  rmtqueue-size:vector  ETV
attr source  RMTQueue_Length
attr title  "RMTQueue Size, vector"
vector 693  FatTreeTopologyPref.TOR3.ipcProcess[3].relayAndMux.p0.outQ_M  rmtqueue-size:vector  ETV
attr source  RMTQueue_Length
attr title  "RMTQueue Size, vector"
vector 697  FatTreeTopologyPref.TOR3.ipcProcess[4].relayAndMux.p0.outQ_M  rmtqueue-size:vector  ETV
attr source  RMTQueue_Length
attr title  "RMTQueue Size, vector"
vector 709  FatTreeTopologyPref.TOR4.ipcProcess[2].relayAndMux.p0.outQ_M  rmtqueue-size:vector  ETV
attr source  RMTQueue_Length
attr title  "RMTQueue Size, vector"
vector 713  FatTreeTopologyPref.TOR4.ipcProcess[3].relayAndMux.p0.outQ_M  rmtqueue-size:vector  ETV
attr source  RMTQueue_Length
attr title  "RMTQueue Size, vector"
vector 717  FatTreeTopologyPref.TOR4.ipcProcess[4].relayAndMux.p0.outQ_M  rmtqueue-size:vector  ETV
attr source  RMTQueue_Length
attr title  "RMTQueue Size, vector"
vector 633  FatTreeTopologyPref.AS3.ipcProcess[0].relayAndMux.p0.outQ_M  rmtqueue-size:vector  ETV
attr source  RMTQueue_Length
attr title  "RMTQueue Size, vector"
vector 645  FatTreeTopologyPref.AS4.ipcProcess[0].relayAndMux.p0.outQ_M  rmtqueue-size:vector  ETV
attr source  RMTQueue_Length
attr title  "RMTQueue Size, vector"
vector 637  FatTreeTopologyPref.AS3.ipcProcess[1].relayAndMux.p0.outQ_M  rmtqueue-size:vector  ETV
attr source  RMTQueue_Length
attr title  "RMTQueue Size, vector"
vector 649  FatTreeTopologyPref.AS4.ipcProcess[1].relayAndMux.p0.outQ_M  rmtqueue-size:vector  ETV
attr source  RMTQueue_Length
attr title  "RMTQueue Size, vector"
vector 741  FatTreeTopologyPref.AS6.ipcProcess[2].relayAndMux.p0.outQ_M  rmtqueue-size:vector  ETV
attr source  RMTQueue_Length
attr title  "RMTQueue Size, vector"
vector 552  FatTreeTopologyPref.AS1.ipcProcess[2].relayAndMux.p0.inQ_M  rmtqueue-size:vector  ETV
attr source  RMTQueue_Length
attr title  "RMTQueue Size, vector"
vector 564  FatTreeTopologyPref.AS2.ipcProcess[2].relayAndMux.p0.inQ_M  rmtqueue-size:vector  ETV
attr source  RMTQueue_Length
attr title  "RMTQueue Size, vector"
vector 568  FatTreeTopologyPref.TOR1.ipcProcess[0].relayAndMux.p0.inQ_M  rmtqueue-size:vector  ETV
attr source  RMTQueue_Length
attr title  "RMTQueue Size, vector"
vector 572  FatTreeTopologyPref.TOR1.ipcProcess[1].relayAndMux.p0.inQ_M  rmtqueue-size:vector  ETV
attr source  RMTQueue_Length
attr title  "RMTQueue Size, vector"
vector 588  FatTreeTopologyPref.TOR2.ipcProcess[0].relayAndMux.p0.inQ_M  rmtqueue-size:vector  ETV
attr source  RMTQueue_Length
attr title  "RMTQueue Size, vector"
vector 592  FatTreeTopologyPref.TOR2.ipcProcess[1].relayAndMux.p0.inQ_M  rmtqueue-size:vector  ETV
attr source  RMTQueue_Length
attr title  "RMTQueue Size, vector"
vector 608  FatTreeTopologyPref.Server11.ipcProcess0.relayAndMux.p0.inQ_M  rmtqueue-size:vector  ETV
attr source  RMTQueue_Length
attr title  "RMTQueue Size, vector"
vector 612  FatTreeTopologyPref.Server12.ipcProcess0.relayAndMux.p0.inQ_M  rmtqueue-size:vector  ETV
attr source  RMTQueue_Length
attr title  "RMTQueue Size, vector"
vector 616  FatTreeTopologyPref.Server21.ipcProcess0.relayAndMux.p0.inQ_M  rmtqueue-size:vector  ETV
attr source  RMTQueue_Length
attr title  "RMTQueue Size, vector"
vector 620  FatTreeTopologyPref.Server23.ipcProcess0.relayAndMux.p0.inQ_M  rmtqueue-size:vector  ETV
attr source  RMTQueue_Length
attr title  "RMTQueue Size, vector"
vector 624  FatTreeTopologyPref.Server13.ipcProcess0.relayAndMux.p0.inQ_M  rmtqueue-size:vector  ETV
attr source  RMTQueue_Length
attr title  "RMTQueue Size, vector"
vector 628  FatTreeTopologyPref.Server22.ipcProcess0.relayAndMux.p0.inQ_M  rmtqueue-size:vector  ETV
attr source  RMTQueue_Length
attr title  "RMTQueue Size, vector"
vector 640  FatTreeTopologyPref.AS3.ipcProcess[2].relayAndMux.p0.inQ_M  rmtqueue-size:vector  ETV
attr source  RMTQueue_Length
attr title  "RMTQueue Size, vector"
vector 652  FatTreeTopologyPref.AS4.ipcProcess[2].relayAndMux.p0.inQ_M  rmtqueue-size:vector  ETV
attr source  RMTQueue_Length
attr title  "RMTQueue Size, vector"
vector 656  FatTreeTopologyPref.Server31.ipcProcess0.relayAndMux.p0.inQ_M  rmtqueue-size:vector  ETV
attr source  RMTQueue_Length
attr title  "RMTQueue Size, vector"
vector 660  FatTreeTopologyPref.Server32.ipcProcess0.relayAndMux.p0.inQ_M  rmtqueue-size:vector  ETV
attr source  RMTQueue_Length
attr title  "RMTQueue Size, vector"
vector 664  FatTreeTopologyPref.Server33.ipcProcess0.relayAndMux.p0.inQ_M  rmtqueue-size:vector  ETV
attr source  RMTQueue_Length
attr title  "RMTQueue Size, vector"
vector 668  FatTreeTopologyPref.Server41.ipcProcess0.relayAndMux.p0.inQ_M  rmtqueue-size:vector  ETV
attr source  RMTQueue_Length
attr title  "RMTQueue Size, vector"
vector 672  FatTreeTopologyPref.Server42.ipcProcess0.relayAndMux.p0.inQ_M  rmtqueue-size:vector  ETV
attr source  RMTQueue_Length
attr title  "RMTQueue Size, vector"
vector 676  FatTreeTopologyPref.Server43.ipcProcess0.relayAndMux.p0.inQ_M  rmtqueue-size:vector  ETV
attr source  RMTQueue_Length
attr title  "RMTQueue Size, vector"
vector 680  FatTreeTopologyPref.TOR3.ipcProcess[0].relayAndMux.p0.inQ_M  rmtqueue-size:vector  ETV
attr source  RMTQueue_Length
attr title  "RMTQueue Size, vector"
vector 684  FatTreeTopologyPref.TOR3.ipcProcess[1].relayAndMux.p0.inQ_M  rmtqueue-size:vector  ETV
attr source  RMTQueue_Length
attr title  "RMTQueue Size, vector"
vector 700  FatTreeTopologyPref.TOR4.ipcProcess[0].relayAndMux.p0.inQ_M  rmtqueue-size:vector  ETV
attr source  RMTQueue_Length
attr title  "RMTQueue Size, vector"
vector 704  FatTreeTopologyPref.TOR4.ipcProcess[1].relayAndMux.p0.inQ_M  rmtqueue-size:vector  ETV
attr source  RMTQueue_Length
attr title  "RMTQueue Size, vector"
vector 728  FatTreeTopologyPref.AS5.ipcProcess[2].relayAndMux.p0.inQ_M  rmtqueue-size:vector  ETV
attr source  RMTQueue_Length
attr title  "RMTQueue Size, vector"
vector 745  FatTreeTopologyPref.AS1.relayIpc.relayAndMux.p0.outQ_M  rmtqueue-size:vector  ETV
attr source  RMTQueue_Length
attr title  "RMTQueue Size, vector"
vector 853  FatTreeTopologyPref.AS1.relayIpc.relayAndMux.p1.outQ_M  rmtqueue-size:vector  ETV
attr source  RMTQueue_Length
attr title  "RMTQueue Size, vector"
vector 861  FatTreeTopologyPref.AS1.relayIpc.relayAndMux.p2.outQ_M  rmtqueue-size:vector  ETV
attr source  RMTQueue_Length
attr title  "RMTQueue Size, vector"
vector 555  FatTreeTopologyPref.AS1.ipcProcess[2].relayAndMux.p0.outQ_0  rmtqueue-size:vector  ETV
attr source  RMTQueue_Length
attr title  "RMTQueue Size, vector"
vector 547  FatTreeTopologyPref.AS1.ipcProcess[0].relayAndMux.p0.outQ_0  rmtqueue-size:vector  ETV
attr source  RMTQueue_Length
attr title  "RMTQueue Size, vector"
vector 551  FatTreeTopologyPref.AS1.ipcProcess[1].relayAndMux.p0.outQ_0  rmtqueue-size:vector  ETV
attr source  RMTQueue_Length
attr title  "RMTQueue Size, vector"
vector 722  FatTreeTopologyPref.AS5.ipcProcess[0].relayAndMux.p0.inQ_0  rmtqueue-size:vector  ETV
attr source  RMTQueue_Length
attr title  "RMTQueue Size, vector"
vector 570  FatTreeTopologyPref.TOR1.ipcProcess[0].relayAndMux.p0.inQ_0  rmtqueue-size:vector  ETV
attr source  RMTQueue_Length
attr title  "RMTQueue Size, vector"
vector 590  FatTreeTopologyPref.TOR2.ipcProcess[0].relayAndMux.p0.inQ_0  rmtqueue-size:vector  ETV
attr source  RMTQueue_Length
attr title  "RMTQueue Size, vector"
vector 723  FatTreeTopologyPref.AS5.ipcProcess[0].relayAndMux.p0.outQ_0  rmtqueue-size:vector  ETV
attr source  RMTQueue_Length
attr title  "RMTQueue Size, vector"
vector 571  FatTreeTopologyPref.TOR1.ipcProcess[0].relayAndMux.p0.outQ_0  rmtqueue-size:vector  ETV
attr source  RMTQueue_Length
attr title  "RMTQueue Size, vector"
vector 591  FatTreeTopologyPref.TOR2.ipcProcess[0].relayAndMux.p0.outQ_0  rmtqueue-size:vector  ETV
attr source  RMTQueue_Length
attr title  "RMTQueue Size, vector"
vector 844  FatTreeTopologyPref.AS5.relayIpc.relayAndMux.p1.inQ_M  rmtqueue-size:vector  ETV
attr source  RMTQueue_Length
attr title  "RMTQueue Size, vector"
vector 752  FatTreeTopologyPref.TOR1.relayIpc.relayAndMux.p0.inQ_M  rmtqueue-size:vector  ETV
attr source  RMTQueue_Length
attr title  "RMTQueue Size, vector"
vector 760  FatTreeTopologyPref.TOR2.relayIpc.relayAndMux.p0.inQ_M  rmtqueue-size:vector  ETV
attr source  RMTQueue_Length
attr title  "RMTQueue Size, vector"
vector 554  FatTreeTopologyPref.AS1.ipcProcess[2].relayAndMux.p0.inQ_0  rmtqueue-size:vector  ETV
attr source  RMTQueue_Length
attr title  "RMTQueue Size, vector"
vector 546  FatTreeTopologyPref.AS1.ipcProcess[0].relayAndMux.p0.inQ_0  rmtqueue-size:vector  ETV
attr source  RMTQueue_Length
attr title  "RMTQueue Size, vector"
vector 550  FatTreeTopologyPref.AS1.ipcProcess[1].relayAndMux.p0.inQ_0  rmtqueue-size:vector  ETV
attr source  RMTQueue_Length
attr title  "RMTQueue Size, vector"
vector 749  FatTreeTopologyPref.AS2.relayIpc.relayAndMux.p0.outQ_M  rmtqueue-size:vector  ETV
attr source  RMTQueue_Length
attr title  "RMTQueue Size, vector"
vector 857  FatTreeTopologyPref.AS2.relayIpc.relayAndMux.p1.outQ_M  rmtqueue-size:vector  ETV
attr source  RMTQueue_Length
attr title  "RMTQueue Size, vector"
vector 865  FatTreeTopologyPref.AS2.relayIpc.relayAndMux.p2.outQ_M  rmtqueue-size:vector  ETV
attr source  RMTQueue_Length
attr title  "RMTQueue Size, vector"
vector 567  FatTreeTopologyPref.AS2.ipcProcess[2].relayAndMux.p0.outQ_0  rmtqueue-size:vector  ETV
attr source  RMTQueue_Length
attr title  "RMTQueue Size, vector"
vector 559  FatTreeTopologyPref.AS2.ipcProcess[0].relayAndMux.p0.outQ_0  rmtqueue-size:vector  ETV
attr source  RMTQueue_Length
attr title  "RMTQueue Size, vector"
vector 563  FatTreeTopologyPref.AS2.ipcProcess[1].relayAndMux.p0.outQ_0  rmtqueue-size:vector  ETV
attr source  RMTQueue_Length
attr title  "RMTQueue Size, vector"
vector 734  FatTreeTopologyPref.AS6.ipcProcess[0].relayAndMux.p0.inQ_0  rmtqueue-size:vector  ETV
attr source  RMTQueue_Length
attr title  "RMTQueue Size, vector"
vector 574  FatTreeTopologyPref.TOR1.ipcProcess[1].relayAndMux.p0.inQ_0  rmtqueue-size:vector  ETV
attr source  RMTQueue_Length
attr title  "RMTQueue Size, vector"
vector 594  FatTreeTopologyPref.TOR2.ipcProcess[1].relayAndMux.p0.inQ_0  rmtqueue-size:vector  ETV
attr source  RMTQueue_Length
attr title  "RMTQueue Size, vector"
vector 735  FatTreeTopologyPref.AS6.ipcProcess[0].relayAndMux.p0.outQ_0  rmtqueue-size:vector  ETV
attr source  RMTQueue_Length
attr title  "RMTQueue Size, vector"
vector 575  FatTreeTopologyPref.TOR1.ipcProcess[1].relayAndMux.p0.outQ_0  rmtqueue-size:vector  ETV
attr source  RMTQueue_Length
attr title  "RMTQueue Size, vector"
vector 595  FatTreeTopologyPref.TOR2.ipcProcess[1].relayAndMux.p0.outQ_0  rmtqueue-size:vector  ETV
attr source  RMTQueue_Length
attr title  "RMTQueue Size, vector"
vector 848  FatTreeTopologyPref.AS6.relayIpc.relayAndMux.p0.inQ_M  rmtqueue-size:vector  ETV
attr source  RMTQueue_Length
attr title  "RMTQueue Size, vector"