version 2
run FatTreeTopology-0-20150311-14:33:02-21801
attr configname FatTreeTopology
attr datetime 20150311-14:33:02
attr experiment FatTreeTopology
attr inifile omnetpp.ini
attr iterationvars ""
attr iterationvars2 $repetition=0
attr measurement ""
attr network FatTreeTopologyPref
attr processid 21801
attr repetition 0
attr replication #0
attr resultdir results
attr runnumber 0
attr seedset 0

vector 2  FatTreeTopologyPref.AS1.ipcProcess[2].flowAllocator.faiTable  ft-size:vector  ETV
attr source  FT_FlowTableSize
attr title  "FlowTable Size, vector"
vector 6  FatTreeTopologyPref.AS2.ipcProcess[2].flowAllocator.faiTable  ft-size:vector  ETV
attr source  FT_FlowTableSize
attr title  "FlowTable Size, vector"
vector 8  FatTreeTopologyPref.TOR1.ipcProcess[0].flowAllocator.faiTable  ft-size:vector  ETV
attr source  FT_FlowTableSize
attr title  "FlowTable Size, vector"
vector 9  FatTreeTopologyPref.TOR1.ipcProcess[1].flowAllocator.faiTable  ft-size:vector  ETV
attr source  FT_FlowTableSize
attr title  "FlowTable Size, vector"
vector 14  FatTreeTopologyPref.TOR2.ipcProcess[0].flowAllocator.faiTable  ft-size:vector  ETV
attr source  FT_FlowTableSize
attr title  "FlowTable Size, vector"
vector 15  FatTreeTopologyPref.TOR2.ipcProcess[1].flowAllocator.faiTable  ft-size:vector  ETV
attr source  FT_FlowTableSize
attr title  "FlowTable Size, vector"
vector 20  FatTreeTopologyPref.Server11.ipcProcess0.flowAllocator.faiTable  ft-size:vector  ETV
attr source  FT_FlowTableSize
attr title  "FlowTable Size, vector"
vector 22  FatTreeTopologyPref.Server12.ipcProcess0.flowAllocator.faiTable  ft-size:vector  ETV
attr source  FT_FlowTableSize
attr title  "FlowTable Size, vector"
vector 24  FatTreeTopologyPref.Server21.ipcProcess0.flowAllocator.faiTable  ft-size:vector  ETV
attr source  FT_FlowTableSize
attr title  "FlowTable Size, vector"
vector 26  FatTreeTopologyPref.Server23.ipcProcess0.flowAllocator.faiTable  ft-size:vector  ETV
attr source  FT_FlowTableSize
attr title  "FlowTable Size, vector"
vector 28  FatTreeTopologyPref.Server13.ipcProcess0.flowAllocator.faiTable  ft-size:vector  ETV
attr source  FT_FlowTableSize
attr title  "FlowTable Size, vector"
vector 30  FatTreeTopologyPref.Server22.ipcProcess0.flowAllocator.faiTable  ft-size:vector  ETV
attr source  FT_FlowTableSize
attr title  "FlowTable Size, vector"
vector 34  FatTreeTopologyPref.AS3.ipcProcess[2].flowAllocator.faiTable  ft-size:vector  ETV
attr source  FT_FlowTableSize
attr title  "FlowTable Size, vector"
vector 38  FatTreeTopologyPref.AS4.ipcProcess[2].flowAllocator.faiTable  ft-size:vector  ETV
attr source  FT_FlowTableSize
attr title  "FlowTable Size, vector"
vector 40  FatTreeTopologyPref.Server31.ipcProcess0.flowAllocator.faiTable  ft-size:vector  ETV
attr source  FT_FlowTableSize
attr title  "FlowTable Size, vector"
vector 42  FatTreeTopologyPref.Server32.ipcProcess0.flowAllocator.faiTable  ft-size:vector  ETV
attr source  FT_FlowTableSize
attr title  "FlowTable Size, vector"
vector 44  FatTreeTopologyPref.Server33.ipcProcess0.flowAllocator.faiTable  ft-size:vector  ETV
attr source  FT_FlowTableSize
attr title  "FlowTable Size, vector"
vector 46  FatTreeTopologyPref.Server41.ipcProcess0.flowAllocator.faiTable  ft-size:vector  ETV
attr source  FT_FlowTableSize
attr title  "FlowTable Size, vector"
vector 48  FatTreeTopologyPref.Server42.ipcProcess0.flowAllocator.faiTable  ft-size:vector  ETV
attr source  FT_FlowTableSize
attr title  "FlowTable Size, vector"
vector 50  FatTreeTopologyPref.Server43.ipcProcess0.flowAllocator.faiTable  ft-size:vector  ETV
attr source  FT_FlowTableSize
attr title  "FlowTable Size, vector"
vector 52  FatTreeTopologyPref.TOR3.ipcProcess[0].flowAllocator.faiTable  ft-size:vector  ETV
attr source  FT_FlowTableSize
attr title  "FlowTable Size, vector"
vector 53  FatTreeTopologyPref.TOR3.ipcProcess[1].flowAllocator.faiTable  ft-size:vector  ETV
attr source  FT_FlowTableSize
attr title  "FlowTable Size, vector"
vector 58  FatTreeTopologyPref.TOR4.ipcProcess[0].flowAllocator.faiTable  ft-size:vector  ETV
attr source  FT_FlowTableSize
attr title  "FlowTable Size, vector"
vector 59  FatTreeTopologyPref.TOR4.ipcProcess[1].flowAllocator.faiTable  ft-size:vector  ETV
attr source  FT_FlowTableSize
attr title  "FlowTable Size, vector"
vector 66  FatTreeTopologyPref.AS5.ipcProcess[2].flowAllocator.faiTable  ft-size:vector  ETV
attr source  FT_FlowTableSize
attr title  "FlowTable Size, vector"
vector 81  FatTreeTopologyPref.AS1.ipcProcess[2].relayAndMux.p0.outQ_M  rmtqueue-size:vector  ETV
attr source  RMTQueue_Length
attr title  "RMTQueue Size, vector"
vector 93  FatTreeTopologyPref.AS2.ipcProcess[2].relayAndMux.p0.outQ_M  rmtqueue-size:vector  ETV
attr source  RMTQueue_Length
attr title  "RMTQueue Size, vector"
vector 97  FatTreeTopologyPref.TOR1.ipcProcess[0].relayAndMux.p0.outQ_M  rmtqueue-size:vector  ETV
attr source  RMTQueue_Length
attr title  "RMTQueue Size, vector"
vector 101  FatTreeTopologyPref.TOR1.ipcProcess[1].relayAndMux.p0.outQ_M  rmtqueue-size:vector  ETV
attr source  RMTQueue_Length
attr title  "RMTQueue Size, vector"
vector 117  FatTreeTopologyPref.TOR2.ipcProcess[0].relayAndMux.p0.outQ_M  rmtqueue-size:vector  ETV
attr source  RMTQueue_Length
attr title  "RMTQueue Size, vector"
vector 121  FatTreeTopologyPref.TOR2.ipcProcess[1].relayAndMux.p0.outQ_M  rmtqueue-size:vector  ETV
attr source  RMTQueue_Length
attr title  "RMTQueue Size, vector"
vector 137  FatTreeTopologyPref.Server11.ipcProcess0.relayAndMux.p0.outQ_M  rmtqueue-size:vector  ETV
attr source  RMTQueue_Length
attr title  "RMTQueue Size, vector"
vector 141  FatTreeTopologyPref.Server12.ipcProcess0.relayAndMux.p0.outQ_M  rmtqueue-size:vector  ETV
attr source  RMTQueue_Length
attr title  "RMTQueue Size, vector"
vector 145  FatTreeTopologyPref.Server21.ipcProcess0.relayAndMux.p0.outQ_M  rmtqueue-size:vector  ETV
attr source  RMTQueue_Length
attr title  "RMTQueue Size, vector"
vector 149  FatTreeTopologyPref.Server23.ipcProcess0.relayAndMux.p0.outQ_M  rmtqueue-size:vector  ETV
attr source  RMTQueue_Length
attr title  "RMTQueue Size, vector"
vector 153  FatTreeTopologyPref.Server13.ipcProcess0.relayAndMux.p0.outQ_M  rmtqueue-size:vector  ETV
attr source  RMTQueue_Length
attr title  "RMTQueue Size, vector"
vector 157  FatTreeTopologyPref.Server22.ipcProcess0.relayAndMux.p0.outQ_M  rmtqueue-size:vector  ETV
attr source  RMTQueue_Length
attr title  "RMTQueue Size, vector"
vector 169  FatTreeTopologyPref.AS3.ipcProcess[2].relayAndMux.p0.outQ_M  rmtqueue-size:vector  ETV
attr source  RMTQueue_Length
attr title  "RMTQueue Size, vector"
vector 181  FatTreeTopologyPref.AS4.ipcProcess[2].relayAndMux.p0.outQ_M  rmtqueue-size:vector  ETV
attr source  RMTQueue_Length
attr title  "RMTQueue Size, vector"
vector 185  FatTreeTopologyPref.Server31.ipcProcess0.relayAndMux.p0.outQ_M  rmtqueue-size:vector  ETV
attr source  RMTQueue_Length
attr title  "RMTQueue Size, vector"
vector 189  FatTreeTopologyPref.Server32.ipcProcess0.relayAndMux.p0.outQ_M  rmtqueue-size:vector  ETV
attr source  RMTQueue_Length
attr title  "RMTQueue Size, vector"
vector 193  FatTreeTopologyPref.Server33.ipcProcess0.relayAndMux.p0.outQ_M  rmtqueue-size:vector  ETV
attr source  RMTQueue_Length
attr title  "RMTQueue Size, vector"
vector 197  FatTreeTopologyPref.Server41.ipcProcess0.relayAndMux.p0.outQ_M  rmtqueue-size:vector  ETV
attr source  RMTQueue_Length
attr title  "RMTQueue Size, vector"
vector 201  FatTreeTopologyPref.Server42.ipcProcess0.relayAndMux.p0.outQ_M  rmtqueue-size:vector  ETV
attr source  RMTQueue_Length
attr title  "RMTQueue Size, vector"
vector 205  FatTreeTopologyPref.Server43.ipcProcess0.relayAndMux.p0.outQ_M  rmtqueue-size:vector  ETV
attr source  RMTQueue_Length
attr title  "RMTQueue Size, vector"
vector 209  FatTreeTopologyPref.TOR3.ipcProcess[0].relayAndMux.p0.outQ_M  rmtqueue-size:vector  ETV
attr source  RMTQueue_Length
attr title  "RMTQueue Size, vector"
vector 213  FatTreeTopologyPref.TOR3.ipcProcess[1].relayAndMux.p0.outQ_M  rmtqueue-size:vector  ETV
attr source  RMTQueue_Length
attr title  "RMTQueue Size, vector"
vector 229  FatTreeTopologyPref.TOR4.ipcProcess[0].relayAndMux.p0.outQ_M  rmtqueue-size:vector  ETV
attr source  RMTQueue_Length
attr title  "RMTQueue Size, vector"
vector 233  FatTreeTopologyPref.TOR4.ipcProcess[1].relayAndMux.p0.outQ_M  rmtqueue-size:vector  ETV
attr source  RMTQueue_Length
attr title  "RMTQueue Size, vector"
vector 257  FatTreeTopologyPref.AS5.ipcProcess[2].relayAndMux.p0.outQ_M  rmtqueue-size:vector  ETV
attr source  RMTQueue_Length
attr title  "RMTQueue Size, vector"
vector 248  FatTreeTopologyPref.AS5.ipcProcess[0].relayAndMux.p0.inQ_M  rmtqueue-size:vector  ETV
attr source  RMTQueue_Length
attr title  "RMTQueue Size, vector"
vector 260  FatTreeTopologyPref.AS6.ipcProcess[0].relayAndMux.p0.inQ_M  rmtqueue-size:vector  ETV
attr source  RMTQueue_Length
attr title  "RMTQueue Size, vector"
vector 72  FatTreeTopologyPref.AS1.ipcProcess[0].relayAndMux.p0.inQ_M  rmtqueue-size:vector  ETV
attr source  RMTQueue_Length
attr title  "RMTQueue Size, vector"
vector 84  FatTreeTopologyPref.AS2.ipcProcess[0].relayAndMux.p0.inQ_M  rmtqueue-size:vector  ETV
attr source  RMTQueue_Length
attr title  "RMTQueue Size, vector"
vector 76  FatTreeTopologyPref.AS1.ipcProcess[1].relayAndMux.p0.inQ_M  rmtqueue-size:vector  ETV
attr source  RMTQueue_Length
attr title  "RMTQueue Size, vector"
vector 88  FatTreeTopologyPref.AS2.ipcProcess[1].relayAndMux.p0.inQ_M  rmtqueue-size:vector  ETV
attr source  RMTQueue_Length
attr title  "RMTQueue Size, vector"
vector 104  FatTreeTopologyPref.TOR1.ipcProcess[2].relayAndMux.p0.inQ_M  rmtqueue-size:vector  ETV
attr source  RMTQueue_Length
attr title  "RMTQueue Size, vector"
vector 108  FatTreeTopologyPref.TOR1.ipcProcess[3].relayAndMux.p0.inQ_M  rmtqueue-size:vector  ETV
attr source  RMTQueue_Length
attr title  "RMTQueue Size, vector"
vector 124  FatTreeTopologyPref.TOR2.ipcProcess[2].relayAndMux.p0.inQ_M  rmtqueue-size:vector  ETV
attr source  RMTQueue_Length
attr title  "RMTQueue Size, vector"
vector 132  FatTreeTopologyPref.TOR2.ipcProcess[4].relayAndMux.p0.inQ_M  rmtqueue-size:vector  ETV
attr source  RMTQueue_Length
attr title  "RMTQueue Size, vector"
vector 112  FatTreeTopologyPref.TOR1.ipcProcess[4].relayAndMux.p0.inQ_M  rmtqueue-size:vector  ETV
attr source  RMTQueue_Length
attr title  "RMTQueue Size, vector"
vector 128  FatTreeTopologyPref.TOR2.ipcProcess[3].relayAndMux.p0.inQ_M  rmtqueue-size:vector  ETV
attr source  RMTQueue_Length
attr title  "RMTQueue Size, vector"
vector 252  FatTreeTopologyPref.AS5.ipcProcess[1].relayAndMux.p0.inQ_M  rmtqueue-size:vector  ETV
attr source  RMTQueue_Length
attr title  "RMTQueue Size, vector"
vector 264  FatTreeTopologyPref.AS6.ipcProcess[1].relayAndMux.p0.inQ_M  rmtqueue-size:vector  ETV
attr source  RMTQueue_Length
attr title  "RMTQueue Size, vector"
vector 216  FatTreeTopologyPref.TOR3.ipcProcess[2].relayAndMux.p0.inQ_M  rmtqueue-size:vector  ETV
attr source  RMTQueue_Length
attr title  "RMTQueue Size, vector"
vector 220  FatTreeTopologyPref.TOR3.ipcProcess[3].relayAndMux.p0.inQ_M  rmtqueue-size:vector  ETV
attr source  RMTQueue_Length
attr title  "RMTQueue Size, vector"
vector 224  FatTreeTopologyPref.TOR3.ipcProcess[4].relayAndMux.p0.inQ_M  rmtqueue-size:vector  ETV
attr source  RMTQueue_Length
attr title  "RMTQueue Size, vector"
vector 236  FatTreeTopologyPref.TOR4.ipcProcess[2].relayAndMux.p0.inQ_M  rmtqueue-size:vector  ETV
attr source  RMTQueue_Length
attr title  "RMTQueue Size, vector"
vector 240  FatTreeTopologyPref.TOR4.ipcProcess[3].relayAndMux.p0.inQ_M  rmtqueue-size:vector  ETV
attr source  RMTQueue_Length
attr title  "RMTQueue Size, vector"
vector 244  FatTreeTopologyPref.TOR4.ipcProcess[4].relayAndMux.p0.inQ_M  rmtqueue-size:vector  ETV
attr source  RMTQueue_Length
attr title  "RMTQueue Size, vector"
vector 160  FatTreeTopologyPref.AS3.ipcProcess[0].relayAndMux.p0.inQ_M  rmtqueue-size:vector  ETV
attr source  RMTQueue_Length
attr title  "RMTQueue Size, vector"
vector 172  FatTreeTopologyPref.AS4.ipcProcess[0].relayAndMux.p0.inQ_M  rmtqueue-size:vector  ETV
attr source  RMTQueue_Length
attr title  "RMTQueue Size, vector"
vector 164  FatTreeTopologyPref.AS3.ipcProcess[1].relayAndMux.p0.inQ_M  rmtqueue-size:vector  ETV
attr source  RMTQueue_Length
attr title  "RMTQueue Size, vector"
vector 176  FatTreeTopologyPref.AS4.ipcProcess[1].relayAndMux.p0.inQ_M  rmtqueue-size:vector  ETV
attr source  RMTQueue_Length
attr title  "RMTQueue Size, vector"
vector 268  FatTreeTopologyPref.AS6.ipcProcess[2].relayAndMux.p0.inQ_M  rmtqueue-size:vector  ETV
attr source  RMTQueue_Length
attr title  "RMTQueue Size, vector"
vector 64  FatTreeTopologyPref.AS5.ipcProcess[0].flowAllocator.faiTable  ft-size:vector  ETV
attr source  FT_FlowTableSize
attr title  "FlowTable Size, vector"
vector 68  FatTreeTopologyPref.AS6.ipcProcess[0].flowAllocator.faiTable  ft-size:vector  ETV
attr source  FT_FlowTableSize
attr title  "FlowTable Size, vector"
vector 0  FatTreeTopologyPref.AS1.ipcProcess[0].flowAllocator.faiTable  ft-size:vector  ETV
attr source  FT_FlowTableSize
attr title  "FlowTable Size, vector"
vector 4  FatTreeTopologyPref.AS2.ipcProcess[0].flowAllocator.faiTable  ft-size:vector  ETV
attr source  FT_FlowTableSize
attr title  "FlowTable Size, vector"
vector 1  FatTreeTopologyPref.AS1.ipcProcess[1].flowAllocator.faiTable  ft-size:vector  ETV
attr source  FT_FlowTableSize
attr title  "FlowTable Size, vector"
vector 5  FatTreeTopologyPref.AS2.ipcProcess[1].flowAllocator.faiTable  ft-size:vector  ETV
attr source  FT_FlowTableSize
attr title  "FlowTable Size, vector"
vector 10  FatTreeTopologyPref.TOR1.ipcProcess[2].flowAllocator.faiTable  ft-size:vector  ETV
attr source  FT_FlowTableSize
attr title  "FlowTable Size, vector"
vector 11  FatTreeTopologyPref.TOR1.ipcProcess[3].flowAllocator.faiTable  ft-size:vector  ETV
attr source  FT_FlowTableSize
attr title  "FlowTable Size, vector"
vector 16  FatTreeTopologyPref.TOR2.ipcProcess[2].flowAllocator.faiTable  ft-size:vector  ETV
attr source  FT_FlowTableSize
attr title  "FlowTable Size, vector"
vector 18  FatTreeTopologyPref.TOR2.ipcProcess[4].flowAllocator.faiTable  ft-size:vector  ETV
attr source  FT_FlowTableSize
attr title  "FlowTable Size, vector"
vector 12  FatTreeTopologyPref.TOR1.ipcProcess[4].flowAllocator.faiTable  ft-size:vector  ETV
attr source  FT_FlowTableSize
attr title  "FlowTable Size, vector"
vector 17  FatTreeTopologyPref.TOR2.ipcProcess[3].flowAllocator.faiTable  ft-size:vector  ETV
attr source  FT_FlowTableSize
attr title  "FlowTable Size, vector"
vector 65  FatTreeTopologyPref.AS5.ipcProcess[1].flowAllocator.faiTable  ft-size:vector  ETV
attr source  FT_FlowTableSize
attr title  "FlowTable Size, vector"
vector 69  FatTreeTopologyPref.AS6.ipcProcess[1].flowAllocator.faiTable  ft-size:vector  ETV
attr source  FT_FlowTableSize
attr title  "FlowTable Size, vector"
vector 54  FatTreeTopologyPref.TOR3.ipcProcess[2].flowAllocator.faiTable  ft-size:vector  ETV
attr source  FT_FlowTableSize
attr title  "FlowTable Size, vector"
vector 55  FatTreeTopologyPref.TOR3.ipcProcess[3].flowAllocator.faiTable  ft-size:vector  ETV
attr source  FT_FlowTableSize
attr title  "FlowTable Size, vector"
vector 56  FatTreeTopologyPref.TOR3.ipcProcess[4].flowAllocator.faiTable  ft-size:vector  ETV
attr source  FT_FlowTableSize
attr title  "FlowTable Size, vector"
vector 60  FatTreeTopologyPref.TOR4.ipcProcess[2].flowAllocator.faiTable  ft-size:vector  ETV
attr source  FT_FlowTableSize
attr title  "FlowTable Size, vector"
vector 61  FatTreeTopologyPref.TOR4.ipcProcess[3].flowAllocator.faiTable  ft-size:vector  ETV
attr source  FT_FlowTableSize
attr title  "FlowTable Size, vector"
vector 62  FatTreeTopologyPref.TOR4.ipcProcess[4].flowAllocator.faiTable  ft-size:vector  ETV
attr source  FT_FlowTableSize
attr title  "FlowTable Size, vector"
vector 32  FatTreeTopologyPref.AS3.ipcProcess[0].flowAllocator.faiTable  ft-size:vector  ETV
attr source  FT_FlowTableSize
attr title  "FlowTable Size, vector"
vector 36  FatTreeTopologyPref.AS4.ipcProcess[0].flowAllocator.faiTable  ft-size:vector  ETV
attr source  FT_FlowTableSize
attr title  "FlowTable Size, vector"
vector 33  FatTreeTopologyPref.AS3.ipcProcess[1].flowAllocator.faiTable  ft-size:vector  ETV
attr source  FT_FlowTableSize
attr title  "FlowTable Size, vector"
vector 37  FatTreeTopologyPref.AS4.ipcProcess[1].flowAllocator.faiTable  ft-size:vector  ETV
attr source  FT_FlowTableSize
attr title  "FlowTable Size, vector"
vector 70  FatTreeTopologyPref.AS6.ipcProcess[2].flowAllocator.faiTable  ft-size:vector  ETV
attr source  FT_FlowTableSize
attr title  "FlowTable Size, vector"
vector 249  FatTreeTopologyPref.AS5.ipcProcess[0].relayAndMux.p0.outQ_M  rmtqueue-size:vector  ETV
attr source  RMTQueue_Length
attr title  "RMTQueue Size, vector"
vector 261  FatTreeTopologyPref.AS6.ipcProcess[0].relayAndMux.p0.outQ_M  rmtqueue-size:vector  ETV
attr source  RMTQueue_Length
attr title  "RMTQueue Size, vector"
vector 73  FatTreeTopologyPref.AS1.ipcProcess[0].relayAndMux.p0.outQ_M  rmtqueue-size:vector  ETV
attr source  RMTQueue_Length
attr title  "RMTQueue Size, vector"
vector 85  FatTreeTopologyPref.AS2.ipcProcess[0].relayAndMux.p0.outQ_M  rmtqueue-size:vector  ETV
attr source  RMTQueue_Length
attr title  "RMTQueue Size, vector"
vector 77  FatTreeTopologyPref.AS1.ipcProcess[1].relayAndMux.p0.outQ_M  rmtqueue-size:vector  ETV
attr source  RMTQueue_Length
attr title  "RMTQueue Size, vector"
vector 89  FatTreeTopologyPref.AS2.ipcProcess[1].relayAndMux.p0.outQ_M  rmtqueue-size:vector  ETV
attr source  RMTQueue_Length
attr title  "RMTQueue Size, vector"
vector 105  FatTreeTopologyPref.TOR1.ipcProcess[2].relayAndMux.p0.outQ_M  rmtqueue-size:vector  ETV
attr source  RMTQueue_Length
attr title  "RMTQueue Size, vector"
vector 109  FatTreeTopologyPref.TOR1.ipcProcess[3].relayAndMux.p0.outQ_M  rmtqueue-size:vector  ETV
attr source  RMTQueue_Length
attr title  "RMTQueue Size, vector"
vector 125  FatTreeTopologyPref.TOR2.ipcProcess[2].relayAndMux.p0.outQ_M  rmtqueue-size:vector  ETV
attr source  RMTQueue_Length
attr title  "RMTQueue Size, vector"
vector 133  FatTreeTopologyPref.TOR2.ipcProcess[4].relayAndMux.p0.outQ_M  rmtqueue-size:vector  ETV
attr source  RMTQueue_Length
attr title  "RMTQueue Size, vector"
vector 113  FatTreeTopologyPref.TOR1.ipcProcess[4].relayAndMux.p0.outQ_M  rmtqueue-size:vector  ETV
attr source  RMTQueue_Length
attr title  "RMTQueue Size, vector"
vector 129  FatTreeTopologyPref.TOR2.ipcProcess[3].relayAndMux.p0.outQ_M  rmtqueue-size:vector  ETV
attr source  RMTQueue_Length
attr title  "RMTQueue Size, vector"
vector 253  FatTreeTopologyPref.AS5.ipcProcess[1].relayAndMux.p0.outQ_M  rmtqueue-size:vector  ETV
attr source  RMTQueue_Length
attr title  "RMTQueue Size, vector"
vector 265  FatTreeTopologyPref.AS6.ipcProcess[1].relayAndMux.p0.outQ_M  rmtqueue-size:vector  ETV
attr source  RMTQueue_Length
attr title  "RMTQueue Size, vector"
vector 217  FatTreeTopologyPref.TOR3.ipcProcess[2].relayAndMux.p0.outQ_M  rmtqueue-size:vector  ETV
attr source  RMTQueue_Length
attr title  "RMTQueue Size, vector"
vector 221  FatTreeTopologyPref.TOR3.ipcProcess[3].relayAndMux.p0.outQ_M  rmtqueue-size:vector  ETV
attr source  RMTQueue_Length
attr title  "RMTQueue Size, vector"
vector 225  FatTreeTopologyPref.TOR3.ipcProcess[4].relayAndMux.p0.outQ_M  rmtqueue-size:vector  ETV
attr source  RMTQueue_Length
attr title  "RMTQueue Size, vector"
vector 237  FatTreeTopologyPref.TOR4.ipcProcess[2].relayAndMux.p0.outQ_M  rmtqueue-size:vector  ETV
attr source  RMTQueue_Length
attr title  "RMTQueue Size, vector"
vector 241  FatTreeTopologyPref.TOR4.ipcProcess[3].relayAndMux.p0.outQ_M  rmtqueue-size:vector  ETV
attr source  RMTQueue_Length
attr title  "RMTQueue Size, vector"
vector 245  FatTreeTopologyPref.TOR4.ipcProcess[4].relayAndMux.p0.outQ_M  rmtqueue-size:vector  ETV
attr source  RMTQueue_Length
attr title  "RMTQueue Size, vector"
vector 161  FatTreeTopologyPref.AS3.ipcProcess[0].relayAndMux.p0.outQ_M  rmtqueue-size:vector  ETV
attr source  RMTQueue_Length
attr title  "RMTQueue Size, vector"
vector 173  FatTreeTopologyPref.AS4.ipcProcess[0].relayAndMux.p0.outQ_M  rmtqueue-size:vector  ETV
attr source  RMTQueue_Length
attr title  "RMTQueue Size, vector"
vector 165  FatTreeTopologyPref.AS3.ipcProcess[1].relayAndMux.p0.outQ_M  rmtqueue-size:vector  ETV
attr source  RMTQueue_Length
attr title  "RMTQueue Size, vector"
vector 177  FatTreeTopologyPref.AS4.ipcProcess[1].relayAndMux.p0.outQ_M  rmtqueue-size:vector  ETV
attr source  RMTQueue_Length
attr title  "RMTQueue Size, vector"
vector 269  FatTreeTopologyPref.AS6.ipcProcess[2].relayAndMux.p0.outQ_M  rmtqueue-size:vector  ETV
attr source  RMTQueue_Length
attr title  "RMTQueue Size, vector"
vector 80  FatTreeTopologyPref.AS1.ipcProcess[2].relayAndMux.p0.inQ_M  rmtqueue-size:vector  ETV
attr source  RMTQueue_Length
attr title  "RMTQueue Size, vector"
vector 92  FatTreeTopologyPref.AS2.ipcProcess[2].relayAndMux.p0.inQ_M  rmtqueue-size:vector  ETV
attr source  RMTQueue_Length
attr title  "RMTQueue Size, vector"
vector 96  FatTreeTopologyPref.TOR1.ipcProcess[0].relayAndMux.p0.inQ_M  rmtqueue-size:vector  ETV
attr source  RMTQueue_Length
attr title  "RMTQueue Size, vector"
vector 100  FatTreeTopologyPref.TOR1.ipcProcess[1].relayAndMux.p0.inQ_M  rmtqueue-size:vector  ETV
attr source  RMTQueue_Length
attr title  "RMTQueue Size, vector"
vector 116  FatTreeTopologyPref.TOR2.ipcProcess[0].relayAndMux.p0.inQ_M  rmtqueue-size:vector  ETV
attr source  RMTQueue_Length
attr title  "RMTQueue Size, vector"
vector 120  FatTreeTopologyPref.TOR2.ipcProcess[1].relayAndMux.p0.inQ_M  rmtqueue-size:vector  ETV
attr source  RMTQueue_Length
attr title  "RMTQueue Size, vector"
vector 136  FatTreeTopologyPref.Server11.ipcProcess0.relayAndMux.p0.inQ_M  rmtqueue-size:vector  ETV
attr source  RMTQueue_Length
attr title  "RMTQueue Size, vector"
vector 140  FatTreeTopologyPref.Server12.ipcProcess0.relayAndMux.p0.inQ_M  rmtqueue-size:vector  ETV
attr source  RMTQueue_Length
attr title  "RMTQueue Size, vector"
vector 144  FatTreeTopologyPref.Server21.ipcProcess0.relayAndMux.p0.inQ_M  rmtqueue-size:vector  ETV
attr source  RMTQueue_Length
attr title  "RMTQueue Size, vector"
vector 148  FatTreeTopologyPref.Server23.ipcProcess0.relayAndMux.p0.inQ_M  rmtqueue-size:vector  ETV
attr source  RMTQueue_Length
attr title  "RMTQueue Size, vector"
vector 152  FatTreeTopologyPref.Server13.ipcProcess0.relayAndMux.p0.inQ_M  rmtqueue-size:vector  ETV
attr source  RMTQueue_Length
attr title  "RMTQueue Size, vector"
vector 156  FatTreeTopologyPref.Server22.ipcProcess0.relayAndMux.p0.inQ_M  rmtqueue-size:vector  ETV
attr source  RMTQueue_Length
attr title  "RMTQueue Size, vector"
vector 168  FatTreeTopologyPref.AS3.ipcProcess[2].relayAndMux.p0.inQ_M  rmtqueue-size:vector  ETV
attr source  RMTQueue_Length
attr title  "RMTQueue Size, vector"
vector 180  FatTreeTopologyPref.AS4.ipcProcess[2].relayAndMux.p0.inQ_M  rmtqueue-size:vector  ETV
attr source  RMTQueue_Length
attr title  "RMTQueue Size, vector"
vector 184  FatTreeTopologyPref.Server31.ipcProcess0.relayAndMux.p0.inQ_M  rmtqueue-size:vector  ETV
attr source  RMTQueue_Length
attr title  "RMTQueue Size, vector"
vector 188  FatTreeTopologyPref.Server32.ipcProcess0.relayAndMux.p0.inQ_M  rmtqueue-size:vector  ETV
attr source  RMTQueue_Length
attr title  "RMTQueue Size, vector"
vector 192  FatTreeTopologyPref.Server33.ipcProcess0.relayAndMux.p0.inQ_M  rmtqueue-size:vector  ETV
attr source  RMTQueue_Length
attr title  "RMTQueue Size, vector"
vector 196  FatTreeTopologyPref.Server41.ipcProcess0.relayAndMux.p0.inQ_M  rmtqueue-size:vector  ETV
attr source  RMTQueue_Length
attr title  "RMTQueue Size, vector"
vector 200  FatTreeTopologyPref.Server42.ipcProcess0.relayAndMux.p0.inQ_M  rmtqueue-size:vector  ETV
attr source  RMTQueue_Length
attr title  "RMTQueue Size, vector"
vector 204  FatTreeTopologyPref.Server43.ipcProcess0.relayAndMux.p0.inQ_M  rmtqueue-size:vector  ETV
attr source  RMTQueue_Length
attr title  "RMTQueue Size, vector"
vector 208  FatTreeTopologyPref.TOR3.ipcProcess[0].relayAndMux.p0.inQ_M  rmtqueue-size:vector  ETV
attr source  RMTQueue_Length
attr title  "RMTQueue Size, vector"
vector 212  FatTreeTopologyPref.TOR3.ipcProcess[1].relayAndMux.p0.inQ_M  rmtqueue-size:vector  ETV
attr source  RMTQueue_Length
attr title  "RMTQueue Size, vector"
vector 228  FatTreeTopologyPref.TOR4.ipcProcess[0].relayAndMux.p0.inQ_M  rmtqueue-size:vector  ETV
attr source  RMTQueue_Length
attr title  "RMTQueue Size, vector"
vector 232  FatTreeTopologyPref.TOR4.ipcProcess[1].relayAndMux.p0.inQ_M  rmtqueue-size:vector  ETV
attr source  RMTQueue_Length
attr title  "RMTQueue Size, vector"
vector 256  FatTreeTopologyPref.AS5.ipcProcess[2].relayAndMux.p0.inQ_M  rmtqueue-size:vector  ETV
attr source  RMTQueue_Length
attr title  "RMTQueue Size, vector"
vector 273  FatTreeTopologyPref.AS1.relayIpc.relayAndMux.p0.outQ_M  rmtqueue-size:vector  ETV
attr source  RMTQueue_Length
attr title  "RMTQueue Size, vector"
vector 381  FatTreeTopologyPref.AS1.relayIpc.relayAndMux.p1.outQ_M  rmtqueue-size:vector  ETV
attr source  RMTQueue_Length
attr title  "RMTQueue Size, vector"
vector 389  FatTreeTopologyPref.AS1.relayIpc.relayAndMux.p2.outQ_M  rmtqueue-size:vector  ETV
attr source  RMTQueue_Length
attr title  "RMTQueue Size, vector"
vector 83  FatTreeTopologyPref.AS1.ipcProcess[2].relayAndMux.p0.outQ_0  rmtqueue-size:vector  ETV
attr source  RMTQueue_Length
attr title  "RMTQueue Size, vector"
vector 75  FatTreeTopologyPref.AS1.ipcProcess[0].relayAndMux.p0.outQ_0  rmtqueue-size:vector  ETV
attr source  RMTQueue_Length
attr title  "RMTQueue Size, vector"
vector 79  FatTreeTopologyPref.AS1.ipcProcess[1].relayAndMux.p0.outQ_0  rmtqueue-size:vector  ETV
attr source  RMTQueue_Length
attr title  "RMTQueue Size, vector"
vector 250  FatTreeTopologyPref.AS5.ipcProcess[0].relayAndMux.p0.inQ_0  rmtqueue-size:vector  ETV
attr source  RMTQueue_Length
attr title  "RMTQueue Size, vector"
vector 98  FatTreeTopologyPref.TOR1.ipcProcess[0].relayAndMux.p0.inQ_0  rmtqueue-size:vector  ETV
attr source  RMTQueue_Length
attr title  "RMTQueue Size, vector"
vector 118  FatTreeTopologyPref.TOR2.ipcProcess[0].relayAndMux.p0.inQ_0  rmtqueue-size:vector  ETV
attr source  RMTQueue_Length
attr title  "RMTQueue Size, vector"
vector 251  FatTreeTopologyPref.AS5.ipcProcess[0].relayAndMux.p0.outQ_0  rmtqueue-size:vector  ETV
attr source  RMTQueue_Length
attr title  "RMTQueue Size, vector"
vector 99  FatTreeTopologyPref.TOR1.ipcProcess[0].relayAndMux.p0.outQ_0  rmtqueue-size:vector  ETV
attr source  RMTQueue_Length
attr title  "RMTQueue Size, vector"
vector 119  FatTreeTopologyPref.TOR2.ipcProcess[0].relayAndMux.p0.outQ_0  rmtqueue-size:vector  ETV
attr source  RMTQueue_Length
attr title  "RMTQueue Size, vector"
vector 372  FatTreeTopologyPref.AS5.relayIpc.relayAndMux.p1.inQ_M  rmtqueue-size:vector  ETV
attr source  RMTQueue_Length
attr title  "RMTQueue Size, vector"
vector 280  FatTreeTopologyPref.TOR1.relayIpc.relayAndMux.p0.inQ_M  rmtqueue-size:vector  ETV
attr source  RMTQueue_Length
attr title  "RMTQueue Size, vector"
vector 288  FatTreeTopologyPref.TOR2.relayIpc.relayAndMux.p0.inQ_M  rmtqueue-size:vector  ETV
attr source  RMTQueue_Length
attr title  "RMTQueue Size, vector"
vector 82  FatTreeTopologyPref.AS1.ipcProcess[2].relayAndMux.p0.inQ_0  rmtqueue-size:vector  ETV
attr source  RMTQueue_Length
attr title  "RMTQueue Size, vector"
vector 74  FatTreeTopologyPref.AS1.ipcProcess[0].relayAndMux.p0.inQ_0  rmtqueue-size:vector  ETV
attr source  RMTQueue_Length
attr title  "RMTQueue Size, vector"
vector 78  FatTreeTopologyPref.AS1.ipcProcess[1].relayAndMux.p0.inQ_0  rmtqueue-size:vector  ETV
attr source  RMTQueue_Length
attr title  "RMTQueue Size, vector"
vector 277  FatTreeTopologyPref.AS2.relayIpc.relayAndMux.p0.outQ_M  rmtqueue-size:vector  ETV
attr source  RMTQueue_Length
attr title  "RMTQueue Size, vector"
vector 385  FatTreeTopologyPref.AS2.relayIpc.relayAndMux.p1.outQ_M  rmtqueue-size:vector  ETV
attr source  RMTQueue_Length
attr title  "RMTQueue Size, vector"
vector 393  FatTreeTopologyPref.AS2.relayIpc.relayAndMux.p2.outQ_M  rmtqueue-size:vector  ETV
attr source  RMTQueue_Length
attr title  "RMTQueue Size, vector"
vector 95  FatTreeTopologyPref.AS2.ipcProcess[2].relayAndMux.p0.outQ_0  rmtqueue-size:vector  ETV
attr source  RMTQueue_Length
attr title  "RMTQueue Size, vector"
vector 87  FatTreeTopologyPref.AS2.ipcProcess[0].relayAndMux.p0.outQ_0  rmtqueue-size:vector  ETV
attr source  RMTQueue_Length
attr title  "RMTQueue Size, vector"
vector 91  FatTreeTopologyPref.AS2.ipcProcess[1].relayAndMux.p0.outQ_0  rmtqueue-size:vector  ETV
attr source  RMTQueue_Length
attr title  "RMTQueue Size, vector"
vector 262  FatTreeTopologyPref.AS6.ipcProcess[0].relayAndMux.p0.inQ_0  rmtqueue-size:vector  ETV
attr source  RMTQueue_Length
attr title  "RMTQueue Size, vector"
vector 102  FatTreeTopologyPref.TOR1.ipcProcess[1].relayAndMux.p0.inQ_0  rmtqueue-size:vector  ETV
attr source  RMTQueue_Length
attr title  "RMTQueue Size, vector"
vector 122  FatTreeTopologyPref.TOR2.ipcProcess[1].relayAndMux.p0.inQ_0  rmtqueue-size:vector  ETV
attr source  RMTQueue_Length
attr title  "RMTQueue Size, vector"
vector 263  FatTreeTopologyPref.AS6.ipcProcess[0].relayAndMux.p0.outQ_0  rmtqueue-size:vector  ETV
attr source  RMTQueue_Length
attr title  "RMTQueue Size, vector"
vector 103  FatTreeTopologyPref.TOR1.ipcProcess[1].relayAndMux.p0.outQ_0  rmtqueue-size:vector  ETV
attr source  RMTQueue_Length
attr title  "RMTQueue Size, vector"
vector 123  FatTreeTopologyPref.TOR2.ipcProcess[1].relayAndMux.p0.outQ_0  rmtqueue-size:vector  ETV
attr source  RMTQueue_Length
attr title  "RMTQueue Size, vector"
vector 376  FatTreeTopologyPref.AS6.relayIpc.relayAndMux.p0.inQ_M  rmtqueue-size:vector  ETV
attr source  RMTQueue_Length
attr title  "RMTQueue Size, vector"