version 2
run PingFC-0-20150311-19:08:19-26367
attr configname PingFC
attr datetime 20150311-19:08:19
attr experiment PingFC
attr inifile omnetpp.ini
attr iterationvars ""
attr iterationvars2 $repetition=0
attr measurement ""
attr network TwoCSs
attr processid 26367
attr repetition 0
attr replication #0
attr resultdir results
attr runnumber 0
attr seedset 0

vector 1  TwoCSs.host1.ipcProcess1.flowAllocator.faiTable  ft-size:vector  ETV
attr source  FT_FlowTableSize
attr title  "FlowTable Size, vector"
vector 0  TwoCSs.host1.ipcProcess0.flowAllocator.faiTable  ft-size:vector  ETV
attr source  FT_FlowTableSize
attr title  "FlowTable Size, vector"
vector 5  TwoCSs.host1.ipcProcess0.relayAndMux.p0.outQ_M  rmtqueue-size:vector  ETV
attr source  RMTQueue_Length
attr title  "RMTQueue Size, vector"
vector 8  TwoCSs.host2.ipcProcess0.relayAndMux.p0.inQ_M  rmtqueue-size:vector  ETV
attr source  RMTQueue_Length
attr title  "RMTQueue Size, vector"
vector 2  TwoCSs.host2.ipcProcess0.flowAllocator.faiTable  ft-size:vector  ETV
attr source  FT_FlowTableSize
attr title  "FlowTable Size, vector"
vector 9  TwoCSs.host2.ipcProcess0.relayAndMux.p0.outQ_M  rmtqueue-size:vector  ETV
attr source  RMTQueue_Length
attr title  "RMTQueue Size, vector"
vector 4  TwoCSs.host1.ipcProcess0.relayAndMux.p0.inQ_M  rmtqueue-size:vector  ETV
attr source  RMTQueue_Length
attr title  "RMTQueue Size, vector"
vector 17  TwoCSs.host1.ipcProcess1.relayAndMux.p0.outQ_M  rmtqueue-size:vector  ETV
attr source  RMTQueue_Length
attr title  "RMTQueue Size, vector"
vector 15  TwoCSs.host1.ipcProcess0.efcp.efcpi_57043.dtp  dtp-close-win-q:vector  ETV
attr source  DTP_CLOSED_WIN_Q
attr title  "Closed-window Queue length, vector"
vector 7  TwoCSs.host1.ipcProcess0.relayAndMux.p0.outQ_0  rmtqueue-size:vector  ETV
attr source  RMTQueue_Length
attr title  "RMTQueue Size, vector"
vector 10  TwoCSs.host2.ipcProcess0.relayAndMux.p0.inQ_0  rmtqueue-size:vector  ETV
attr source  RMTQueue_Length
attr title  "RMTQueue Size, vector"
vector 25  TwoCSs.host2.ipcProcess0.efcp.efcpi_55026.dtp  dtp-close-win-q:vector  ETV
attr source  DTP_CLOSED_WIN_Q
attr title  "Closed-window Queue length, vector"
vector 11  TwoCSs.host2.ipcProcess0.relayAndMux.p0.outQ_0  rmtqueue-size:vector  ETV
attr source  RMTQueue_Length
attr title  "RMTQueue Size, vector"
vector 20  TwoCSs.host2.ipcProcess1.relayAndMux.p0.inQ_M  rmtqueue-size:vector  ETV
attr source  RMTQueue_Length
attr title  "RMTQueue Size, vector"
vector 3  TwoCSs.host2.ipcProcess1.flowAllocator.faiTable  ft-size:vector  ETV
attr source  FT_FlowTableSize
attr title  "FlowTable Size, vector"
vector 21  TwoCSs.host2.ipcProcess1.relayAndMux.p0.outQ_M  rmtqueue-size:vector  ETV
attr source  RMTQueue_Length
attr title  "RMTQueue Size, vector"
vector 6  TwoCSs.host1.ipcProcess0.relayAndMux.p0.inQ_0  rmtqueue-size:vector  ETV
attr source  RMTQueue_Length
attr title  "RMTQueue Size, vector"
vector 14  TwoCSs.host1.ipcProcess0.efcp.efcpi_57043.dtp  dtp-rtt:vector  ETV
attr source  DTP_RTT
attr title  "Estimated RTT, vector"
vector 16  TwoCSs.host1.ipcProcess1.relayAndMux.p0.inQ_M  rmtqueue-size:vector  ETV
attr source  RMTQueue_Length
attr title  "RMTQueue Size, vector"
vector 24  TwoCSs.host2.ipcProcess0.efcp.efcpi_55026.dtp  dtp-rtt:vector  ETV
attr source  DTP_RTT
attr title  "Estimated RTT, vector"
vector 13  TwoCSs.host1.ipcProcess1.efcp.efcpi_32103.dtp  dtp-close-win-q:vector  ETV
attr source  DTP_CLOSED_WIN_Q
attr title  "Closed-window Queue length, vector"
vector 19  TwoCSs.host1.ipcProcess1.relayAndMux.p0.outQ_0  rmtqueue-size:vector  ETV
attr source  RMTQueue_Length
attr title  "RMTQueue Size, vector"
vector 22  TwoCSs.host2.ipcProcess1.relayAndMux.p0.inQ_0  rmtqueue-size:vector  ETV
attr source  RMTQueue_Length
attr title  "RMTQueue Size, vector"
vector 27  TwoCSs.host2.ipcProcess1.efcp.efcpi_14935.dtp  dtp-close-win-q:vector  ETV
attr source  DTP_CLOSED_WIN_Q
attr title  "Closed-window Queue length, vector"
vector 23  TwoCSs.host2.ipcProcess1.relayAndMux.p0.outQ_0  rmtqueue-size:vector  ETV
attr source  RMTQueue_Length
attr title  "RMTQueue Size, vector"
vector 18  TwoCSs.host1.ipcProcess1.relayAndMux.p0.inQ_0  rmtqueue-size:vector  ETV
attr source  RMTQueue_Length
attr title  "RMTQueue Size, vector"
vector 12  TwoCSs.host1.ipcProcess1.efcp.efcpi_32103.dtp  dtp-rtt:vector  ETV
attr source  DTP_RTT
attr title  "Estimated RTT, vector"
vector 26  TwoCSs.host2.ipcProcess1.efcp.efcpi_14935.dtp  dtp-rtt:vector  ETV
attr source  DTP_RTT
attr title  "Estimated RTT, vector"
13	97	35	0
13	116	36	0
13	135	37	0
13	193	38	0
13	265	39	0
13	337	40	0
13	415	41	0
13	416	41	0
13	460	41	0
13	544	42	0
13	545	42	0
13	589	42	0
13	673	43	0
13	674	43	0
13	715	43	0
13	821	44	0
13	822	44	0
13	865	44	0
13	977	45	0
13	978	45	0
13	1021	45	0
13	1130	46	0
13	1240	47	0
13	1241	47	0
13	1284	47	0
13	1387	48	0
13	1388	48	0
13	1410	48	0
13	1502	49	0
13	1503	49	0
13	1541	49	0
13	1664	50	0
13	1665	50	0
13	1705	50	0
13	1826	51	0
13	1827	51	0
13	1867	51	0
13	1991	52	0
13	2121	53	0
13	2122	53	0
13	2154	53	0
13	2276	54	0
13	2277	54	0
13	2295	54	0
13	2392	55	0
13	2393	55	0
13	2407	55	0
13	2531	56	0
13	2532	56	0
13	2562	56	0
13	2690	57	0
13	2691	57	0
13	2723	57	0
13	2842	58	0
13	2967	59	0
13	2968	59	0
13	2982	59	0
13	3096	60	0
13	3097	60	0
13	3131	60	1
13	3229	61	1
13	3230	61	1
13	3242	61	2
13	3359	62	1
13	3360	62	1
13	3387	62	2
13	3508	63	2
13	3509	63	2
13	3531	63	3
13	3643	64	4
13	3765	65	3
13	3766	65	3
13	3801	65	4
13	3916	66	4
13	3917	66	4
13	3930	66	5
13	4028	67	4
13	4029	67	4
13	4046	67	5
13	4167	68	5
13	4168	68	5
13	4198	68	6
13	4315	69	5
13	4316	69	5
13	4354	69	6
13	4464	70	7
13	4582	71	7
13	4583	71	7
13	4597	71	8
13	4708	72	7
13	4709	72	7
13	4730	72	8
13	4828	73	8
13	4829	73	7
13	4838	73	8
13	4951	74	8
13	4952	74	8
13	4984	74	9
13	5105	75	9
13	5106	75	8
13	5126	75	9
13	5226	76	10
13	5344	77	10
13	5345	77	10
13	5377	77	11
13	5496	78	11
13	5497	78	11
13	5513	78	12
13	5607	79	11
13	5608	79	11
13	5620	79	12
13	5733	80	12
13	5734	80	11
13	5756	80	12
13	5881	81	12
13	5882	81	12
13	5914	81	13
13	6014	82	14
13	6136	83	14
13	6137	83	14
13	6167	83	15
13	6282	84	14
13	6283	84	14
13	6304	84	15
13	6394	85	15
13	6395	85	15
13	6404	85	16
13	6517	86	16
13	6518	86	15
13	6545	86	16
13	6666	87	16
13	6667	87	16
13	6699	87	17
13	6794	88	18
13	6912	89	18
13	6913	89	18
13	6937	89	19
13	7048	90	19
13	7049	90	19
13	7062	90	20
13	7156	91	19
13	7157	91	19
13	7172	91	20
13	7285	92	20
13	7286	92	20
13	7305	92	21
13	7426	93	21
13	7427	93	21
13	7441	93	22
13	7550	94	23
13	7664	95	22
13	7665	95	22
13	7700	95	23
13	7811	96	23
13	7812	96	23
13	7825	96	24
13	7915	97	24
13	7916	97	24
13	7931	97	25
13	8048	98	24
13	8049	98	24
13	8068	98	25
13	8185	99	25
13	8186	99	24
13	8213	99	25
13	8309	100	26
13	8423	101	26
13	8424	101	26
13	8459	101	27
13	8574	102	27
13	8575	102	26
13	8588	102	27
13	8682	103	27
13	8683	103	27
13	8697	103	28
13	8810	104	27
13	8811	104	27
13	8825	104	28
13	8942	105	28
13	8943	105	28
13	8972	105	29
13	9068	106	30
13	9182	107	30
13	9183	107	30
13	9210	107	31
13	9325	108	30
13	9326	108	30
13	9347	108	31
13	9437	109	30
13	9438	109	30
13	9447	109	31
13	9568	110	31
13	9569	110	31
13	9585	110	32
13	9702	111	32
13	9703	111	32
13	9730	111	33
13	9839	112	34
13	9953	113	33
13	9954	113	33
13	9976	113	34
13	10087	114	33
13	10088	114	33
13	10109	114	34
13	10199	115	34
13	10200	115	34
13	10222	115	35
13	10343	116	35
13	10344	116	34
13	10371	116	35
13	10488	117	35
13	10489	117	35
13	10511	117	36
13	10616	118	37
13	10730	119	37
13	10731	119	36
13	10758	119	37
13	10869	120	37
13	10870	120	37
13	10891	120	38
13	10981	121	37
13	10982	121	37
13	11002	121	38
13	11115	122	38
13	11116	122	37
13	11143	122	38
13	11260	123	38
13	11261	123	38
13	11293	123	39
13	11385	124	40
13	11499	125	40
13	11500	125	39
13	11527	125	40
13	11638	126	40
13	11639	126	40
13	11657	126	41
13	11747	127	40
13	11748	127	40
13	11768	127	41
13	11881	128	41
13	11882	128	40
13	11909	128	41
13	12026	129	41
13	12027	129	40
13	12059	129	41
13	12151	130	42
13	12265	131	42
13	12266	131	42
13	12298	131	43
13	12409	132	42
13	12410	132	42
13	12441	132	43
13	12531	133	42
13	12532	133	42
13	12549	133	43
13	12662	134	43
13	12663	134	42
13	12690	134	43
13	12803	135	43
13	12804	135	42
13	13046	137	42
13	13047	137	41
13	13187	138	41
13	13188	138	40
13	13293	139	40
13	13294	139	39
13	13431	140	39
13	13432	140	38
13	13578	141	38
13	13579	141	37
13	13821	143	37
13	13822	143	36
13	13962	144	36
13	13963	144	35
13	14068	145	35
13	14069	145	34
13	14206	146	34
13	14207	146	33
13	14353	147	33
13	14354	147	32
13	14596	149	32
13	14597	149	31
13	14737	150	31
13	14738	150	30
13	14843	151	30
13	14844	151	29
13	14981	152	29
13	14982	152	28
13	15128	153	28
13	15129	153	27
13	15371	155	27
13	15372	155	26
13	15512	156	26
13	15513	156	25
13	15618	157	25
13	15619	157	24
13	15756	158	24
13	15757	158	23
13	15903	159	23
13	15904	159	22
13	16146	161	22
13	16147	161	21
13	16287	162	21
13	16288	162	20
13	16393	163	20
13	16394	163	19
13	16531	164	19
13	16532	164	18
13	16678	165	18
13	16679	165	17
13	16921	167	17
13	16922	167	16
13	17062	168	16
13	17063	168	15
13	17168	169	15
13	17169	169	14
13	17306	170	14
13	17307	170	13
13	17453	171	13
13	17454	171	12
13	17696	173	12
13	17697	173	11
13	17837	174	11
13	17838	174	10
13	17943	175	10
13	17944	175	9
13	18081	176	9
13	18082	176	8
13	18228	177	8
13	18229	177	7
13	18471	179	7
13	18472	179	6
13	18612	180	6
13	18613	180	5
13	18718	181	5
13	18719	181	4
13	18856	182	4
13	18857	182	3
13	19003	183	3
13	19004	183	2
13	19246	185	2
13	19247	185	1
13	19387	186	1
13	19388	186	0
13	19493	187	0
13	19494	187	0
13	19623	188	0
13	19624	188	0
13	19762	189	0
13	19763	189	0
13	19994	191	0
13	19995	191	0
13	20124	192	0
13	20125	192	0
13	20217	193	0
13	20218	193	0
13	20329	194	0
13	20330	194	0
13	20427	195	0
13	20428	195	0
13	20557	197	0
13	20558	197	0
13	20641	198	0
13	20642	198	0
13	20686	199	0
12	415	41	7
12	544	42	6.5
12	673	43	6.25
12	821	44	6.125
12	977	45	6.0625
12	1240	47	6.53125
12	1387	48	6.765625
12	1502	49	6.8828125
12	1664	50	6.94140625
12	1826	51	6.970703125
12	2121	53	7.485351562
12	2276	54	7.742675781
12	2392	55	7.87133789
12	2532	56	7.935668945
12	2968	59	8.967834472
12	3359	62	10.483917236
12	3765	65	12.241958618
12	4028	67	13.620979309
12	4315	69	14.810489654
12	4708	72	16.405244827
12	4829	73	17.202622413
12	5106	75	18.101311206
12	5607	79	20.050655603
12	5734	80	21.025327801
12	6282	84	23.0126639
12	6518	86	23.50633195
12	7156	91	24.753165975
12	7664	95	26.376582987
12	8048	98	27.688291493
12	8186	99	27.344145746
12	8575	102	28.172072872
12	8810	104	28.586036436
12	9325	108	28.793018218
12	9437	109	28.896509109
12	9953	113	28.948254554
12	10087	114	28.474127277
12	10344	116	26.737063638
12	10731	119	25.368531818
12	10981	121	24.184265909
12	11116	122	23.592132954
12	11500	125	23.296066477
12	11747	127	23.148033238
12	11882	128	21.574016619
12	12027	129	20.787008309
12	12409	132	19.893504154
12	12531	133	19.446752077
12	12663	134	18.723376038
12	12804	135	17.361688019
12	13047	137	16.680844009
12	13188	138	16.340422004
12	13294	139	15.170211002
12	13432	140	14.085105501
12	13579	141	13.54255275
12	13822	143	13.771276375
12	13963	144	12.885638187
12	14069	145	12.442819093
12	14207	146	12.221409546
12	14354	147	12.110704773
12	14597	149	12.055352386
12	14738	150	12.027676193
12	14844	151	12.013838096
12	14982	152	12.006919048
12	15129	153	12.003459524
12	15372	155	12.001729762
12	15513	156	12.000864881
12	15619	157	12.00043244
12	15757	158	12.00021622
12	15904	159	12.00010811
12	16147	161	12.000054055
12	16288	162	12.000027027
12	16394	163	12.000013513
12	16532	164	12.000006756
12	16679	165	12.000003377
12	16922	167	12.000001688
12	17063	168	12.000000843
12	17169	169	12.000000421
12	17307	170	12.00000021
12	17454	171	12.000000105
12	17697	173	12.000000052
12	17838	174	12.000000026
12	17944	175	12.000000013
12	18082	176	12.000000006
12	18229	177	12.000000003
12	18472	179	12.000000001
12	18613	180	12
12	18719	181	12
12	18857	182	12
12	19004	183	12
12	19247	185	12
12	19388	186	12
12	19494	187	12
12	19624	188	12
12	19763	189	12
12	19995	191	12
12	20125	192	12
12	20218	193	12
12	20330	194	12
12	20428	195	12
12	20558	197	12
12	20642	198	12
27	164	38	0
27	184	38	0
27	236	39	0
27	256	39	0
27	308	40	0
27	328	40	0
27	414	41	0
27	450	41	0
27	543	42	0
27	579	42	0
27	672	43	0
27	705	43	0
27	823	44	0
27	824	44	0
27	856	44	0
27	979	45	0
27	980	45	0
27	1012	45	0
27	1103	46	0
27	1104	46	0
27	1121	46	0
27	1242	47	0
27	1243	47	0
27	1275	47	0
27	1389	48	0
27	1501	49	0
27	1532	49	0
27	1666	50	0
27	1667	50	0
27	1696	50	0
27	1828	51	0
27	1829	51	0
27	1858	51	0
27	1961	52	0
27	1962	52	0
27	1982	52	0
27	2123	53	0
27	2124	53	0
27	2145	53	0
27	2278	54	0
27	2391	55	0
27	2533	56	0
27	2534	56	0
27	2553	56	0
27	2692	57	0
27	2693	57	0
27	2714	57	0
27	2816	58	0
27	2817	58	0
27	2833	58	0
27	2969	59	0
27	2970	59	0
27	3098	60	0
27	3122	60	0
27	3228	61	0
27	3361	62	0
27	3362	62	0
27	3378	62	0
27	3510	63	0
27	3511	63	0
27	3617	64	0
27	3618	64	0
27	3634	64	0
27	3767	65	0
27	3768	65	0
27	3792	65	0
27	3918	66	0
27	4027	67	0
27	4169	68	0
27	4170	68	0
27	4189	68	0
27	4317	69	0
27	4318	69	0
27	4345	69	0
27	4444	70	0
27	4445	70	0
27	4458	70	1
27	4584	71	0
27	4585	71	0
27	4710	72	0
27	4827	73	0
27	4953	74	0
27	4954	74	0
27	4978	74	1
27	5107	75	1
27	5108	75	0
27	5216	76	0
27	5217	76	0
27	5346	77	0
27	5347	77	0
27	5371	77	1
27	5498	78	0
27	5606	79	0
27	5735	80	0
27	5736	80	0
27	5883	81	0
27	5884	81	0
27	5905	81	0
27	6004	82	0
27	6005	82	0
27	6138	83	0
27	6139	83	0
27	6158	83	0
27	6284	84	0
27	6393	85	0
27	6519	86	0
27	6520	86	0
27	6536	86	0
27	6668	87	0
27	6669	87	0
27	6693	87	1
27	6781	88	0
27	6782	88	0
27	6914	89	0
27	6915	89	0
27	6931	89	1
27	7050	90	1
27	7155	91	0
27	7287	92	0
27	7288	92	0
27	7428	93	0
27	7429	93	0
27	7527	94	0
27	7528	94	0
27	7541	94	0
27	7666	95	0
27	7667	95	0
27	7694	95	1
27	7813	96	0
27	7914	97	0
27	8050	98	0
27	8051	98	0
27	8187	99	0
27	8188	99	0
27	8207	99	1
27	8299	100	0
27	8300	100	0
27	8425	101	0
27	8426	101	0
27	8450	101	0
27	8576	102	0
27	8681	103	0
27	8812	104	0
27	8813	104	0
27	8944	105	0
27	8945	105	0
27	8966	105	1
27	9058	106	0
27	9059	106	0
27	9184	107	0
27	9185	107	0
27	9204	107	1
27	9327	108	0
27	9436	109	0
27	9570	110	0
27	9571	110	0
27	9704	111	0
27	9705	111	0
27	9721	111	0
27	9816	112	0
27	9817	112	0
27	9833	112	1
27	9955	113	0
27	9956	113	0
27	10089	114	0
27	10198	115	0
27	10216	115	1
27	10345	116	0
27	10346	116	0
27	10365	116	1
27	10490	117	0
27	10491	117	0
27	10593	118	0
27	10594	118	0
27	10610	118	1
27	10732	119	0
27	10733	119	0
27	10752	119	1
27	10871	120	1
27	10980	121	0
27	11117	122	0
27	11118	122	0
27	11137	122	1
27	11262	123	0
27	11263	123	0
27	11287	123	1
27	11375	124	0
27	11376	124	0
27	11501	125	0
27	11502	125	0
27	11521	125	1
27	11640	126	1
27	11746	127	0
27	11883	128	0
27	11884	128	0
27	11900	128	0
27	12028	129	0
27	12029	129	0
27	12053	129	1
27	12141	130	0
27	12142	130	0
27	12267	131	0
27	12268	131	0
27	12289	131	0
27	12411	132	0
27	12435	132	1
27	12530	133	1
27	12664	134	0
27	12665	134	0
27	12684	134	1
27	12805	135	0
27	12806	135	0
27	12837	135	1
27	12919	136	0
27	12920	136	0
27	12936	136	1
27	13048	137	0
27	13049	137	0
27	13080	137	1
27	13189	138	0
27	13292	139	0
27	13322	139	1
27	13433	140	0
27	13434	140	0
27	13465	140	1
27	13580	141	0
27	13581	141	0
27	13612	141	1
27	13694	142	0
27	13695	142	0
27	13711	142	1
27	13823	143	0
27	13824	143	0
27	13855	143	1
27	13964	144	0
27	14067	145	0
27	14097	145	1
27	14208	146	0
27	14209	146	0
27	14240	146	1
27	14355	147	0
27	14356	147	0
27	14387	147	1
27	14469	148	0
27	14470	148	0
27	14486	148	1
27	14598	149	0
27	14599	149	0
27	14630	149	1
27	14739	150	0
27	14842	151	0
27	14872	151	1
27	14983	152	0
27	14984	152	0
27	15015	152	1
27	15130	153	0
27	15131	153	0
27	15162	153	1
27	15244	154	0
27	15245	154	0
27	15261	154	1
27	15373	155	0
27	15374	155	0
27	15405	155	1
27	15514	156	0
27	15617	157	0
27	15647	157	1
27	15758	158	0
27	15759	158	0
27	15790	158	1
27	15905	159	0
27	15906	159	0
27	15937	159	1
27	16019	160	0
27	16020	160	0
27	16036	160	1
27	16148	161	0
27	16149	161	0
27	16180	161	1
27	16289	162	0
27	16392	163	0
27	16422	163	1
27	16533	164	0
27	16534	164	0
27	16565	164	1
27	16680	165	0
27	16681	165	0
27	16712	165	1
27	16794	166	0
27	16795	166	0
27	16811	166	1
27	16923	167	0
27	16924	167	0
27	16955	167	1
27	17064	168	0
27	17167	169	0
27	17197	169	1
27	17308	170	0
27	17309	170	0
27	17340	170	1
27	17455	171	0
27	17456	171	0
27	17487	171	1
27	17569	172	0
27	17570	172	0
27	17586	172	1
27	17698	173	0
27	17699	173	0
27	17730	173	1
27	17839	174	0
27	17942	175	0
27	17972	175	1
27	18083	176	0
27	18084	176	0
27	18115	176	1
27	18230	177	0
27	18231	177	0
27	18262	177	1
27	18344	178	0
27	18345	178	0
27	18361	178	1
27	18473	179	0
27	18474	179	0
27	18505	179	1
27	18614	180	0
27	18717	181	0
27	18747	181	1
27	18858	182	0
27	18859	182	0
27	18890	182	1
27	19005	183	0
27	19006	183	0
27	19037	183	1
27	19119	184	0
27	19120	184	0
27	19136	184	1
27	19248	185	0
27	19249	185	0
27	19280	185	1
27	19389	186	0
27	19492	187	0
27	19519	187	1
27	19625	188	0
27	19626	188	0
27	19654	188	1
27	19764	189	0
27	19765	189	0
27	19793	189	1
27	19871	190	0
27	19872	190	0
27	19888	190	1
27	19996	191	0
27	19997	191	0
27	20028	191	1
27	20126	192	0
27	20216	193	0
27	20331	194	0
27	20332	194	0
27	20429	195	0
27	20489	196	0
27	20559	197	0
27	20643	198	0
27	20736	200	0
27	20782	201	0
27	20804	202	0
26	823	44	7
26	979	45	6.5
26	1103	46	6.25
26	1242	47	6.125
26	1389	48	6.0625
26	1667	50	6.53125
26	1829	51	6.765625
26	2123	53	7.3828125
26	2391	55	8.19140625
26	2692	57	9.095703125
26	2970	59	9.547851562
26	3361	62	10.773925781
26	3511	63	11.38696289
26	4027	67	13.193481445
26	4584	71	15.596740722
26	5108	75	17.298370361
26	5498	78	19.14918518
26	5884	81	21.07459259
26	6139	83	22.037296295
26	6520	86	23.018648147
26	6781	88	23.509324073
26	7155	91	24.754662036
26	7528	94	25.377331018
26	7813	96	26.188665509
26	8299	100	27.594332754
26	8426	101	26.797166377
26	9058	106	27.398583188
26	9327	108	27.199291594
26	9705	111	27.599645797
26	9955	113	27.299822898
26	10345	116	27.649911449
26	10490	117	26.824955724
26	10732	119	25.912477862
26	10980	121	25.456238931
26	11262	123	24.228119465
26	11375	124	23.614059732
26	11746	127	22.307029866
26	11884	128	21.153514933
26	12141	130	20.076757466
26	12268	131	19.038378733
26	12664	134	18.519189366
26	12805	135	18.259594683
26	12919	136	17.629797341
26	13048	137	16.81489867
26	13189	138	15.907449335
26	13433	140	15.953724667
26	13580	141	14.976862333
26	13694	142	14.488431166
26	13823	143	13.744215582
26	13964	144	13.372107791
26	14208	146	12.686053895
26	14355	147	12.343026947
26	14469	148	12.171513473
26	14598	149	12.085756736
26	14739	150	12.042878368
26	14983	152	12.021439184
26	15130	153	12.010719592
26	15244	154	12.005359796
26	15373	155	12.002679898
26	15514	156	12.001339949
26	15758	158	12.000669974
26	15905	159	12.000334986
26	16019	160	12.000167493
26	16148	161	12.000083746
26	16289	162	12.000041873
26	16533	164	12.000020936
26	16680	165	12.000010468
26	16794	166	12.000005234
26	16923	167	12.000002617
26	17064	168	12.000001308
26	17308	170	12.000000654
26	17455	171	12.000000327
26	17569	172	12.000000163
26	17698	173	12.000000081
26	17839	174	12.00000004
26	18083	176	12.00000002
26	18230	177	12.00000001
26	18344	178	12.000000005
26	18473	179	12.000000002
26	18614	180	12.000000001
26	18858	182	12
26	19005	183	12
26	19119	184	12
26	19248	185	12
26	19389	186	12
26	19625	188	12
26	19764	189	12
26	19871	190	12
26	19996	191	12
26	20126	192	12
26	20216	193	11.5
26	20331	194	11.25
26	20332	194	10.625
26	20429	195	10.3125
26	20489	196	10.15625
26	20559	197	9.578125
26	20643	198	9.2890625
26	20736	200	9.64453125
26	20782	201	9.822265625
26	20804	202	9.911132812
0	1	10	1
1	1	10	1
2	11	13	1
3	50	19	1
4	18	16	0
4	18	16	0
5	4	10	0
5	4	10	0
6	67	22	0
6	67	22	0
6	68	22	0
6	68	22	0
6	369	41	0
6	369	41	0
6	371	41	0
6	371	41	0
6	372	41	0
6	372	41	0
6	498	42	0
6	498	42	0
6	500	42	0
6	500	42	0
6	501	42	0
6	501	42	0
6	627	43	0
6	627	43	0
6	629	43	0
6	629	43	0
6	630	43	0
6	630	43	0
6	749	44	0
6	749	44	0
6	751	44	0
6	751	44	0
6	753	44	0
6	753	44	0
6	905	45	0
6	905	45	0
6	907	45	0
6	907	45	0
6	909	45	0
6	909	45	0
6	1054	46	0
6	1054	46	0
6	1161	47	0
6	1161	47	0
6	1163	47	0
6	1163	47	0
6	1165	47	0
6	1165	47	0
6	1167	47	0
6	1167	47	0
6	1321	48	0
6	1321	48	0
6	1323	48	0
6	1323	48	0
6	1325	48	0
6	1325	48	0
6	1327	48	0
6	1327	48	0
6	1447	49	0
6	1447	49	0
6	1448	49	0
6	1448	49	0
6	1449	49	0
6	1449	49	0
6	1450	49	0
6	1450	49	0
6	1583	50	0
6	1583	50	0
6	1585	50	0
6	1585	50	0
6	1587	50	0
6	1587	50	0
6	1589	50	0
6	1589	50	0
6	1752	51	0
6	1752	51	0
6	1754	51	0
6	1754	51	0
6	1756	51	0
6	1756	51	0
6	1908	52	0
6	1908	52	0
6	2031	53	0
6	2031	53	0
6	2033	53	0
6	2033	53	0
6	2035	53	0
6	2035	53	0
6	2037	53	0
6	2037	53	0
6	2199	54	0
6	2199	54	0
6	2201	54	0
6	2201	54	0
6	2203	54	0
6	2203	54	0
6	2205	54	0
6	2205	54	0
6	2333	55	0
6	2333	55	0
6	2334	55	0
6	2334	55	0
6	2335	55	0
6	2335	55	0
6	2336	55	0
6	2336	55	0
6	2442	56	0
6	2442	56	0
6	2444	56	0
6	2444	56	0
6	2446	56	0
6	2446	56	0
6	2448	56	0
6	2448	56	0
6	2608	57	0
6	2608	57	0
6	2610	57	0
6	2610	57	0
6	2612	57	0
6	2612	57	0
6	2759	58	0
6	2759	58	0
6	2877	59	0
6	2877	59	0
6	2879	59	0
6	2879	59	0
6	2881	59	0
6	2881	59	0
6	2883	59	0
6	2883	59	0
6	3019	60	0
6	3019	60	0
6	3021	60	0
6	3021	60	0
6	3023	60	0
6	3023	60	0
6	3025	60	0
6	3025	60	0
6	3170	61	0
6	3170	61	0
6	3171	61	0
6	3171	61	0
6	3172	61	0
6	3172	61	0
6	3173	61	0
6	3173	61	0
6	3270	62	0
6	3270	62	0
6	3272	62	0
6	3272	62	0
6	3274	62	0
6	3274	62	0
6	3276	62	0
6	3276	62	0
6	3426	63	0
6	3426	63	0
6	3428	63	0
6	3428	63	0
6	3430	63	0
6	3430	63	0
6	3560	64	0
6	3560	64	0
6	3675	65	0
6	3675	65	0
6	3677	65	0
6	3677	65	0
6	3679	65	0
6	3679	65	0
6	3681	65	0
6	3681	65	0
6	3839	66	0
6	3839	66	0
6	3841	66	0
6	3841	66	0
6	3843	66	0
6	3843	66	0
6	3845	66	0
6	3845	66	0
6	3969	67	0
6	3969	67	0
6	3970	67	0
6	3970	67	0
6	3971	67	0
6	3971	67	0
6	3972	67	0
6	3972	67	0
6	4078	68	0
6	4078	68	0
6	4080	68	0
6	4080	68	0
6	4082	68	0
6	4082	68	0
6	4084	68	0
6	4084	68	0
6	4233	69	0
6	4233	69	0
6	4235	69	0
6	4235	69	0
6	4237	69	0
6	4237	69	0
6	4387	70	0
6	4387	70	0
6	4492	71	0
6	4492	71	0
6	4494	71	0
6	4494	71	0
6	4496	71	0
6	4496	71	0
6	4498	71	0
6	4498	71	0
6	4631	72	0
6	4631	72	0
6	4633	72	0
6	4633	72	0
6	4635	72	0
6	4635	72	0
6	4637	72	0
6	4637	72	0
6	4769	73	0
6	4769	73	0
6	4770	73	0
6	4770	73	0
6	4771	73	0
6	4771	73	0
6	4772	73	0
6	4772	73	0
6	4862	74	0
6	4862	74	0
6	4864	74	0
6	4864	74	0
6	4866	74	0
6	4866	74	0
6	4868	74	0
6	4868	74	0
6	5023	75	0
6	5023	75	0
6	5025	75	0
6	5025	75	0
6	5027	75	0
6	5027	75	0
6	5159	76	0
6	5159	76	0
6	5254	77	0
6	5254	77	0
6	5256	77	0
6	5256	77	0
6	5258	77	0
6	5258	77	0
6	5260	77	0
6	5260	77	0
6	5419	78	0
6	5419	78	0
6	5421	78	0
6	5421	78	0
6	5423	78	0
6	5423	78	0
6	5425	78	0
6	5425	78	0
6	5548	79	0
6	5548	79	0
6	5549	79	0
6	5549	79	0
6	5550	79	0
6	5550	79	0
6	5551	79	0
6	5551	79	0
6	5644	80	0
6	5644	80	0
6	5646	80	0
6	5646	80	0
6	5648	80	0
6	5648	80	0
6	5650	80	0
6	5650	80	0
6	5799	81	0
6	5799	81	0
6	5801	81	0
6	5801	81	0
6	5803	81	0
6	5803	81	0
6	5947	82	0
6	5947	82	0
6	6046	83	0
6	6046	83	0
6	6048	83	0
6	6048	83	0
6	6050	83	0
6	6050	83	0
6	6052	83	0
6	6052	83	0
6	6205	84	0
6	6205	84	0
6	6207	84	0
6	6207	84	0
6	6209	84	0
6	6209	84	0
6	6211	84	0
6	6211	84	0
6	6335	85	0
6	6335	85	0
6	6336	85	0
6	6336	85	0
6	6337	85	0
6	6337	85	0
6	6338	85	0
6	6338	85	0
6	6428	86	0
6	6428	86	0
6	6430	86	0
6	6430	86	0
6	6432	86	0
6	6432	86	0
6	6434	86	0
6	6434	86	0
6	6584	87	0
6	6584	87	0
6	6586	87	0
6	6586	87	0
6	6588	87	0
6	6588	87	0
6	6724	88	0
6	6724	88	0
6	6822	89	0
6	6822	89	0
6	6824	89	0
6	6824	89	0
6	6826	89	0
6	6826	89	0
6	6828	89	0
6	6828	89	0
6	6971	90	0
6	6971	90	0
6	6973	90	0
6	6973	90	0
6	6975	90	0
6	6975	90	0
6	6977	90	0
6	6977	90	0
6	7097	91	0
6	7097	91	0
6	7098	91	0
6	7098	91	0
6	7099	91	0
6	7099	91	0
6	7100	91	0
6	7100	91	0
6	7196	92	0
6	7196	92	0
6	7198	92	0
6	7198	92	0
6	7200	92	0
6	7200	92	0
6	7202	92	0
6	7202	92	0
6	7344	93	0
6	7344	93	0
6	7346	93	0
6	7346	93	0
6	7348	93	0
6	7348	93	0
6	7470	94	0
6	7470	94	0
6	7574	95	0
6	7574	95	0
6	7576	95	0
6	7576	95	0
6	7578	95	0
6	7578	95	0
6	7580	95	0
6	7580	95	0
6	7734	96	0
6	7734	96	0
6	7736	96	0
6	7736	96	0
6	7738	96	0
6	7738	96	0
6	7740	96	0
6	7740	96	0
6	7856	97	0
6	7856	97	0
6	7857	97	0
6	7857	97	0
6	7858	97	0
6	7858	97	0
6	7859	97	0
6	7859	97	0
6	7959	98	0
6	7959	98	0
6	7961	98	0
6	7961	98	0
6	7963	98	0
6	7963	98	0
6	7965	98	0
6	7965	98	0
6	8103	99	0
6	8103	99	0
6	8105	99	0
6	8105	99	0
6	8107	99	0
6	8107	99	0
6	8242	100	0
6	8242	100	0
6	8333	101	0
6	8333	101	0
6	8335	101	0
6	8335	101	0
6	8337	101	0
6	8337	101	0
6	8339	101	0
6	8339	101	0
6	8497	102	0
6	8497	102	0
6	8499	102	0
6	8499	102	0
6	8501	102	0
6	8501	102	0
6	8503	102	0
6	8503	102	0
6	8623	103	0
6	8623	103	0
6	8624	103	0
6	8624	103	0
6	8625	103	0
6	8625	103	0
6	8626	103	0
6	8626	103	0
6	8721	104	0
6	8721	104	0
6	8723	104	0
6	8723	104	0
6	8725	104	0
6	8725	104	0
6	8727	104	0
6	8727	104	0
6	8860	105	0
6	8860	105	0
6	8862	105	0
6	8862	105	0
6	8864	105	0
6	8864	105	0
6	9001	106	0
6	9001	106	0
6	9092	107	0
6	9092	107	0
6	9094	107	0
6	9094	107	0
6	9096	107	0
6	9096	107	0
6	9098	107	0
6	9098	107	0
6	9248	108	0
6	9248	108	0
6	9250	108	0
6	9250	108	0
6	9252	108	0
6	9252	108	0
6	9254	108	0
6	9254	108	0
6	9378	109	0
6	9378	109	0
6	9379	109	0
6	9379	109	0
6	9380	109	0
6	9380	109	0
6	9381	109	0
6	9381	109	0
6	9479	110	0
6	9479	110	0
6	9481	110	0
6	9481	110	0
6	9483	110	0
6	9483	110	0
6	9485	110	0
6	9485	110	0
6	9620	111	0
6	9620	111	0
6	9622	111	0
6	9622	111	0
6	9624	111	0
6	9624	111	0
6	9759	112	0
6	9759	112	0
6	9863	113	0
6	9863	113	0
6	9865	113	0
6	9865	113	0
6	9867	113	0
6	9867	113	0
6	9869	113	0
6	9869	113	0
6	10010	114	0
6	10010	114	0
6	10012	114	0
6	10012	114	0
6	10014	114	0
6	10014	114	0
6	10016	114	0
6	10016	114	0
6	10140	115	0
6	10140	115	0
6	10141	115	0
6	10141	115	0
6	10142	115	0
6	10142	115	0
6	10143	115	0
6	10143	115	0
6	10254	116	0
6	10254	116	0
6	10256	116	0
6	10256	116	0
6	10258	116	0
6	10258	116	0
6	10260	116	0
6	10260	116	0
6	10406	117	0
6	10406	117	0
6	10408	117	0
6	10408	117	0
6	10410	117	0
6	10410	117	0
6	10536	118	0
6	10536	118	0
6	10640	119	0
6	10640	119	0
6	10642	119	0
6	10642	119	0
6	10644	119	0
6	10644	119	0
6	10646	119	0
6	10646	119	0
6	10792	120	0
6	10792	120	0
6	10794	120	0
6	10794	120	0
6	10796	120	0
6	10796	120	0
6	10798	120	0
6	10798	120	0
6	10922	121	0
6	10922	121	0
6	10923	121	0
6	10923	121	0
6	10924	121	0
6	10924	121	0
6	10925	121	0
6	10925	121	0
6	11026	122	0
6	11026	122	0
6	11028	122	0
6	11028	122	0
6	11030	122	0
6	11030	122	0
6	11032	122	0
6	11032	122	0
6	11178	123	0
6	11178	123	0
6	11180	123	0
6	11180	123	0
6	11182	123	0
6	11182	123	0
6	11318	124	0
6	11318	124	0
6	11409	125	0
6	11409	125	0
6	11411	125	0
6	11411	125	0
6	11413	125	0
6	11413	125	0
6	11415	125	0
6	11415	125	0
6	11561	126	0
6	11561	126	0
6	11563	126	0
6	11563	126	0
6	11565	126	0
6	11565	126	0
6	11567	126	0
6	11567	126	0
6	11688	127	0
6	11688	127	0
6	11689	127	0
6	11689	127	0
6	11690	127	0
6	11690	127	0
6	11691	127	0
6	11691	127	0
6	11792	128	0
6	11792	128	0
6	11794	128	0
6	11794	128	0
6	11796	128	0
6	11796	128	0
6	11798	128	0
6	11798	128	0
6	11944	129	0
6	11944	129	0
6	11946	129	0
6	11946	129	0
6	11948	129	0
6	11948	129	0
6	12084	130	0
6	12084	130	0
6	12175	131	0
6	12175	131	0
6	12177	131	0
6	12177	131	0
6	12179	131	0
6	12179	131	0
6	12181	131	0
6	12181	131	0
6	12332	132	0
6	12332	132	0
6	12334	132	0
6	12334	132	0
6	12336	132	0
6	12336	132	0
6	12338	132	0
6	12338	132	0
6	12472	133	0
6	12472	133	0
6	12473	133	0
6	12473	133	0
6	12474	133	0
6	12474	133	0
6	12475	133	0
6	12475	133	0
6	12573	134	0
6	12573	134	0
6	12575	134	0
6	12575	134	0
6	12577	134	0
6	12577	134	0
6	12579	134	0
6	12579	134	0
6	12725	135	0
6	12725	135	0
6	12727	135	0
6	12727	135	0
6	12729	135	0
6	12729	135	0
6	12862	136	0
6	12862	136	0
6	12960	137	0
6	12960	137	0
6	12962	137	0
6	12962	137	0
6	12964	137	0
6	12964	137	0
6	12966	137	0
6	12966	137	0
6	13114	138	0
6	13114	138	0
6	13116	138	0
6	13116	138	0
6	13118	138	0
6	13118	138	0
6	13120	138	0
6	13120	138	0
6	13238	139	0
6	13238	139	0
6	13239	139	0
6	13239	139	0
6	13240	139	0
6	13240	139	0
6	13241	139	0
6	13241	139	0
6	13346	140	0
6	13346	140	0
6	13348	140	0
6	13348	140	0
6	13350	140	0
6	13350	140	0
6	13352	140	0
6	13352	140	0
6	13500	141	0
6	13500	141	0
6	13502	141	0
6	13502	141	0
6	13504	141	0
6	13504	141	0
6	13637	142	0
6	13637	142	0
6	13735	143	0
6	13735	143	0
6	13737	143	0
6	13737	143	0
6	13739	143	0
6	13739	143	0
6	13741	143	0
6	13741	143	0
6	13889	144	0
6	13889	144	0
6	13891	144	0
6	13891	144	0
6	13893	144	0
6	13893	144	0
6	13895	144	0
6	13895	144	0
6	14013	145	0
6	14013	145	0
6	14014	145	0
6	14014	145	0
6	14015	145	0
6	14015	145	0
6	14016	145	0
6	14016	145	0
6	14121	146	0
6	14121	146	0
6	14123	146	0
6	14123	146	0
6	14125	146	0
6	14125	146	0
6	14127	146	0
6	14127	146	0
6	14275	147	0
6	14275	147	0
6	14277	147	0
6	14277	147	0
6	14279	147	0
6	14279	147	0
6	14412	148	0
6	14412	148	0
6	14510	149	0
6	14510	149	0
6	14512	149	0
6	14512	149	0
6	14514	149	0
6	14514	149	0
6	14516	149	0
6	14516	149	0
6	14664	150	0
6	14664	150	0
6	14666	150	0
6	14666	150	0
6	14668	150	0
6	14668	150	0
6	14670	150	0
6	14670	150	0
6	14788	151	0
6	14788	151	0
6	14789	151	0
6	14789	151	0
6	14790	151	0
6	14790	151	0
6	14791	151	0
6	14791	151	0
6	14896	152	0
6	14896	152	0
6	14898	152	0
6	14898	152	0
6	14900	152	0
6	14900	152	0
6	14902	152	0
6	14902	152	0
6	15050	153	0
6	15050	153	0
6	15052	153	0
6	15052	153	0
6	15054	153	0
6	15054	153	0
6	15187	154	0
6	15187	154	0
6	15285	155	0
6	15285	155	0
6	15287	155	0
6	15287	155	0
6	15289	155	0
6	15289	155	0
6	15291	155	0
6	15291	155	0
6	15439	156	0
6	15439	156	0
6	15441	156	0
6	15441	156	0
6	15443	156	0
6	15443	156	0
6	15445	156	0
6	15445	156	0
6	15563	157	0
6	15563	157	0
6	15564	157	0
6	15564	157	0
6	15565	157	0
6	15565	157	0
6	15566	157	0
6	15566	157	0
6	15671	158	0
6	15671	158	0
6	15673	158	0
6	15673	158	0
6	15675	158	0
6	15675	158	0
6	15677	158	0
6	15677	158	0
6	15825	159	0
6	15825	159	0
6	15827	159	0
6	15827	159	0
6	15829	159	0
6	15829	159	0
6	15962	160	0
6	15962	160	0
6	16060	161	0
6	16060	161	0
6	16062	161	0