version 2
run PingFC-0-20150301-04:28:33-6400
attr configname PingFC
attr datetime 20150301-04:28:33
attr experiment PingFC
attr inifile omnetpp.ini
attr iterationvars ""
attr iterationvars2 $repetition=0
attr measurement ""
attr network TwoCSs
attr processid 6400
attr repetition 0
attr replication #0
attr resultdir results
attr runnumber 0
attr seedset 0

vector 1  TwoCSs.host1.ipcProcess1.flowAllocator.faiTable  ft-size:vector  ETV
attr source  FT_FlowTableSize
attr title  "FlowTable Size, vector"
vector 0  TwoCSs.host1.ipcProcess0.flowAllocator.faiTable  ft-size:vector  ETV
attr source  FT_FlowTableSize
attr title  "FlowTable Size, vector"
vector 5  TwoCSs.host1.ipcProcess0.relayAndMux.p0.outQ_M  rmtqueue-size:vector  ETV
attr source  RMTQueue_Length
attr title  "RMTQueue Size, vector"
vector 8  TwoCSs.host2.ipcProcess0.relayAndMux.p0.inQ_M  rmtqueue-size:vector  ETV
attr source  RMTQueue_Length
attr title  "RMTQueue Size, vector"
vector 2  TwoCSs.host2.ipcProcess0.flowAllocator.faiTable  ft-size:vector  ETV
attr source  FT_FlowTableSize
attr title  "FlowTable Size, vector"
vector 9  TwoCSs.host2.ipcProcess0.relayAndMux.p0.outQ_M  rmtqueue-size:vector  ETV
attr source  RMTQueue_Length
attr title  "RMTQueue Size, vector"
vector 4  TwoCSs.host1.ipcProcess0.relayAndMux.p0.inQ_M  rmtqueue-size:vector  ETV
attr source  RMTQueue_Length
attr title  "RMTQueue Size, vector"
vector 13  TwoCSs.host1.ipcProcess1.relayAndMux.p0.outQ_M  rmtqueue-size:vector  ETV
attr source  RMTQueue_Length
attr title  "RMTQueue Size, vector"
vector 7  TwoCSs.host1.ipcProcess0.relayAndMux.p0.outQ_0  rmtqueue-size:vector  ETV
attr source  RMTQueue_Length
attr title  "RMTQueue Size, vector"
vector 10  TwoCSs.host2.ipcProcess0.relayAndMux.p0.inQ_0  rmtqueue-size:vector  ETV
attr source  RMTQueue_Length
attr title  "RMTQueue Size, vector"
vector 11  TwoCSs.host2.ipcProcess0.relayAndMux.p0.outQ_0  rmtqueue-size:vector  ETV
attr source  RMTQueue_Length
attr title  "RMTQueue Size, vector"
vector 16  TwoCSs.host2.ipcProcess1.relayAndMux.p0.inQ_M  rmtqueue-size:vector  ETV
attr source  RMTQueue_Length
attr title  "RMTQueue Size, vector"
vector 3  TwoCSs.host2.ipcProcess1.flowAllocator.faiTable  ft-size:vector  ETV
attr source  FT_FlowTableSize
attr title  "FlowTable Size, vector"
vector 17  TwoCSs.host2.ipcProcess1.relayAndMux.p0.outQ_M  rmtqueue-size:vector  ETV
attr source  RMTQueue_Length
attr title  "RMTQueue Size, vector"
vector 6  TwoCSs.host1.ipcProcess0.relayAndMux.p0.inQ_0  rmtqueue-size:vector  ETV
attr source  RMTQueue_Length
attr title  "RMTQueue Size, vector"
vector 12  TwoCSs.host1.ipcProcess1.relayAndMux.p0.inQ_M  rmtqueue-size:vector  ETV
attr source  RMTQueue_Length
attr title  "RMTQueue Size, vector"
vector 15  TwoCSs.host1.ipcProcess1.relayAndMux.p0.outQ_0  rmtqueue-size:vector  ETV
attr source  RMTQueue_Length
attr title  "RMTQueue Size, vector"
vector 18  TwoCSs.host2.ipcProcess1.relayAndMux.p0.inQ_0  rmtqueue-size:vector  ETV
attr source  RMTQueue_Length
attr title  "RMTQueue Size, vector"
vector 19  TwoCSs.host2.ipcProcess1.relayAndMux.p0.outQ_0  rmtqueue-size:vector  ETV
attr source  RMTQueue_Length
attr title  "RMTQueue Size, vector"
vector 14  TwoCSs.host1.ipcProcess1.relayAndMux.p0.inQ_0  rmtqueue-size:vector  ETV
attr source  RMTQueue_Length
attr title  "RMTQueue Size, vector"
0	1	10	1
1	1	10	1
2	11	13	1
3	50	19	1
4	18	16	0
4	18	16	0
5	4	10	0
5	4	10	0
6	67	22	0
6	67	22	0
6	68	22	0
6	68	22	0
6	369	41	0
6	369	41	0
6	371	41	0
6	371	41	0
6	372	41	0
6	372	41	0
6	498	42	0
6	498	42	0
6	500	42	0
6	500	42	0
6	501	42	0
6	501	42	0
6	627	43	0
6	627	43	0
6	629	43	0
6	629	43	0
6	630	43	0
6	630	43	0
6	749	44	0
6	749	44	0
6	751	44	0
6	751	44	0
6	753	44	0
6	753	44	0
6	905	45	0
6	905	45	0
6	907	45	0
6	907	45	0
6	909	45	0
6	909	45	0
6	1054	46	0
6	1054	46	0
6	1161	47	0
6	1161	47	0
6	1163	47	0
6	1163	47	0
6	1165	47	0
6	1165	47	0
6	1167	47	0
6	1167	47	0
6	1321	48	0
6	1321	48	0
6	1323	48	0
6	1323	48	0
6	1325	48	0
6	1325	48	0
6	1327	48	0
6	1327	48	0
6	1447	49	0
6	1447	49	0
6	1448	49	0
6	1448	49	0
6	1449	49	0
6	1449	49	0
6	1450	49	0
6	1450	49	0
6	1583	50	0
6	1583	50	0
6	1585	50	0
6	1585	50	0
6	1587	50	0
6	1587	50	0
6	1589	50	0
6	1589	50	0
6	1752	51	0
6	1752	51	0
6	1754	51	0
6	1754	51	0
6	1756	51	0
6	1756	51	0
6	1908	52	0
6	1908	52	0
6	2031	53	0
6	2031	53	0
6	2033	53	0
6	2033	53	0
6	2035	53	0
6	2035	53	0
6	2037	53	0
6	2037	53	0
6	2199	54	0
6	2199	54	0
6	2201	54	0
6	2201	54	0
6	2203	54	0
6	2203	54	0
6	2205	54	0
6	2205	54	0
6	2333	55	0
6	2333	55	0
6	2334	55	0
6	2334	55	0
6	2335	55	0
6	2335	55	0
6	2336	55	0
6	2336	55	0
6	2442	56	0
6	2442	56	0
6	2444	56	0
6	2444	56	0
6	2446	56	0
6	2446	56	0
6	2448	56	0
6	2448	56	0
6	2608	57	0
6	2608	57	0
6	2610	57	0
6	2610	57	0
6	2612	57	0
6	2612	57	0
6	2759	58	0
6	2759	58	0
6	2877	59	0
6	2877	59	0
6	2879	59	0
6	2879	59	0
6	2881	59	0
6	2881	59	0
6	2883	59	0
6	2883	59	0
6	3019	60	0
6	3019	60	0
6	3021	60	0
6	3021	60	0
6	3023	60	0
6	3023	60	0
6	3025	60	0
6	3025	60	0
6	3170	61	0
6	3170	61	0
6	3171	61	0
6	3171	61	0
6	3172	61	0
6	3172	61	0
6	3173	61	0
6	3173	61	0
6	3270	62	0
6	3270	62	0
6	3272	62	0
6	3272	62	0
6	3274	62	0
6	3274	62	0
6	3276	62	0
6	3276	62	0
6	3426	63	0
6	3426	63	0
6	3428	63	0
6	3428	63	0
6	3430	63	0
6	3430	63	0
6	3560	64	0
6	3560	64	0
6	3675	65	0
6	3675	65	0
6	3677	65	0
6	3677	65	0
6	3679	65	0
6	3679	65	0
6	3681	65	0
6	3681	65	0
6	3839	66	0
6	3839	66	0
6	3841	66	0
6	3841	66	0
6	3843	66	0
6	3843	66	0
6	3845	66	0
6	3845	66	0
6	3969	67	0
6	3969	67	0
6	3970	67	0
6	3970	67	0
6	3971	67	0
6	3971	67	0
6	3972	67	0
6	3972	67	0
6	4078	68	0
6	4078	68	0
6	4080	68	0
6	4080	68	0
6	4082	68	0
6	4082	68	0
6	4084	68	0
6	4084	68	0
6	4233	69	0
6	4233	69	0
6	4235	69	0
6	4235	69	0
6	4237	69	0
6	4237	69	0
6	4387	70	0
6	4387	70	0
6	4492	71	0
6	4492	71	0
6	4494	71	0
6	4494	71	0
6	4496	71	0
6	4496	71	0
6	4498	71	0
6	4498	71	0
6	4631	72	0
6	4631	72	0
6	4633	72	0
6	4633	72	0
6	4635	72	0
6	4635	72	0
6	4637	72	0
6	4637	72	0
6	4769	73	0
6	4769	73	0
6	4770	73	0
6	4770	73	0
6	4771	73	0
6	4771	73	0
6	4772	73	0
6	4772	73	0
6	4862	74	0
6	4862	74	0
6	4864	74	0
6	4864	74	0
6	4866	74	0
6	4866	74	0
6	4868	74	0
6	4868	74	0
6	5023	75	0
6	5023	75	0
6	5025	75	0
6	5025	75	0
6	5027	75	0
6	5027	75	0
6	5159	76	0
6	5159	76	0
6	5254	77	0
6	5254	77	0
6	5256	77	0
6	5256	77	0
6	5258	77	0
6	5258	77	0
6	5260	77	0
6	5260	77	0
6	5419	78	0
6	5419	78	0
6	5421	78	0
6	5421	78	0
6	5423	78	0
6	5423	78	0
6	5425	78	0
6	5425	78	0
6	5548	79	0
6	5548	79	0
6	5549	79	0
6	5549	79	0
6	5550	79	0
6	5550	79	0
6	5551	79	0
6	5551	79	0
6	5644	80	0
6	5644	80	0
6	5646	80	0
6	5646	80	0
6	5648	80	0
6	5648	80	0
6	5650	80	0
6	5650	80	0
6	5799	81	0
6	5799	81	0
6	5801	81	0
6	5801	81	0
6	5803	81	0
6	5803	81	0
6	5947	82	0
6	5947	82	0
6	6046	83	0
6	6046	83	0
6	6048	83	0
6	6048	83	0
6	6050	83	0
6	6050	83	0
6	6052	83	0
6	6052	83	0
6	6205	84	0
6	6205	84	0
6	6207	84	0
6	6207	84	0
6	6209	84	0
6	6209	84	0
6	6211	84	0
6	6211	84	0
6	6335	85	0
6	6335	85	0
6	6336	85	0
6	6336	85	0
6	6337	85	0
6	6337	85	0
6	6338	85	0
6	6338	85	0
6	6428	86	0
6	6428	86	0
6	6430	86	0
6	6430	86	0
6	6432	86	0
6	6432	86	0
6	6434	86	0
6	6434	86	0
6	6584	87	0
6	6584	87	0
6	6586	87	0
6	6586	87	0
6	6588	87	0
6	6588	87	0
6	6724	88	0
6	6724	88	0
6	6822	89	0
6	6822	89	0
6	6824	89	0
6	6824	89	0
6	6826	89	0
6	6826	89	0
6	6828	89	0
6	6828	89	0
6	6971	90	0
6	6971	90	0
6	6973	90	0
6	6973	90	0
6	6975	90	0
6	6975	90	0
6	6977	90	0
6	6977	90	0
6	7097	91	0
6	7097	91	0
6	7098	91	0
6	7098	91	0
6	7099	91	0
6	7099	91	0
6	7100	91	0
6	7100	91	0
6	7196	92	0
6	7196	92	0
6	7198	92	0
6	7198	92	0
6	7200	92	0
6	7200	92	0
6	7202	92	0
6	7202	92	0
6	7344	93	0
6	7344	93	0
6	7346	93	0
6	7346	93	0
6	7348	93	0
6	7348	93	0
6	7470	94	0
6	7470	94	0
6	7574	95	0
6	7574	95	0
6	7576	95	0
6	7576	95	0
6	7578	95	0
6	7578	95	0
6	7580	95	0
6	7580	95	0
6	7734	96	0
6	7734	96	0
6	7736	96	0
6	7736	96	0
6	7738	96	0
6	7738	96	0
6	7740	96	0
6	7740	96	0
6	7856	97	0
6	7856	97	0
6	7857	97	0
6	7857	97	0
6	7858	97	0
6	7858	97	0
6	7859	97	0
6	7859	97	0
6	7959	98	0
6	7959	98	0
6	7961	98	0
6	7961	98	0
6	7963	98	0
6	7963	98	0
6	7965	98	0
6	7965	98	0
6	8103	99	0
6	8103	99	0
6	8105	99	0
6	8105	99	0
6	8107	99	0
6	8107	99	0
6	8242	100	0
6	8242	100	0
6	8333	101	0
6	8333	101	0
6	8335	101	0
6	8335	101	0
6	8337	101	0
6	8337	101	0
6	8339	101	0
6	8339	101	0
6	8497	102	0
6	8497	102	0
6	8499	102	0
6	8499	102	0
6	8501	102	0
6	8501	102	0
6	8503	102	0
6	8503	102	0
6	8623	103	0
6	8623	103	0
6	8624	103	0
6	8624	103	0
6	8625	103	0
6	8625	103	0
6	8626	103	0
6	8626	103	0
6	8721	104	0
6	8721	104	0
6	8723	104	0
6	8723	104	0
6	8725	104	0
6	8725	104	0
6	8727	104	0
6	8727	104	0
6	8860	105	0
6	8860	105	0
6	8862	105	0
6	8862	105	0
6	8864	105	0
6	8864	105	0
6	9001	106	0
6	9001	106	0
6	9092	107	0
6	9092	107	0
6	9094	107	0
6	9094	107	0
6	9096	107	0
6	9096	107	0
6	9098	107	0
6	9098	107	0
6	9248	108	0
6	9248	108	0
6	9250	108	0
6	9250	108	0
6	9252	108	0
6	9252	108	0
6	9254	108	0
6	9254	108	0
6	9378	109	0
6	9378	109	0
6	9379	109	0
6	9379	109	0
6	9380	109	0
6	9380	109	0
6	9381	109	0
6	9381	109	0
6	9479	110	0
6	9479	110	0
6	9481	110	0
6	9481	110	0
6	9483	110	0
6	9483	110	0
6	9485	110	0
6	9485	110	0
6	9620	111	0
6	9620	111	0
6	9622	111	0
6	9622	111	0
6	9624	111	0
6	9624	111	0
6	9759	112	0
6	9759	112	0
6	9863	113	0
6	9863	113	0
6	9865	113	0
6	9865	113	0
6	9867	113	0
6	9867	113	0
6	9869	113	0
6	9869	113	0
6	10010	114	0
6	10010	114	0
6	10012	114	0
6	10012	114	0
6	10014	114	0
6	10014	114	0
6	10016	114	0
6	10016	114	0
6	10140	115	0
6	10140	115	0
6	10141	115	0
6	10141	115	0
6	10142	115	0
6	10142	115	0
6	10143	115	0
6	10143	115	0
6	10254	116	0
6	10254	116	0
6	10256	116	0
6	10256	116	0
6	10258	116	0
6	10258	116	0
6	10260	116	0
6	10260	116	0
6	10406	117	0
6	10406	117	0
6	10408	117	0
6	10408	117	0
6	10410	117	0
6	10410	117	0
6	10536	118	0
6	10536	118	0
6	10640	119	0
6	10640	119	0
6	10642	119	0
6	10642	119	0
6	10644	119	0
6	10644	119	0
6	10646	119	0
6	10646	119	0
6	10792	120	0
6	10792	120	0
6	10794	120	0
6	10794	120	0
6	10796	120	0
6	10796	120	0
6	10798	120	0
6	10798	120	0
6	10922	121	0
6	10922	121	0
6	10923	121	0
6	10923	121	0
6	10924	121	0
6	10924	121	0
6	10925	121	0
6	10925	121	0
6	11026	122	0
6	11026	122	0
6	11028	122	0
6	11028	122	0
6	11030	122	0
6	11030	122	0
6	11032	122	0
6	11032	122	0
6	11178	123	0
6	11178	123	0
6	11180	123	0
6	11180	123	0
6	11182	123	0
6	11182	123	0
6	11318	124	0
6	11318	124	0
6	11409	125	0
6	11409	125	0
6	11411	125	0
6	11411	125	0
6	11413	125	0
6	11413	125	0
6	11415	125	0
6	11415	125	0
6	11561	126	0
6	11561	126	0
6	11563	126	0
6	11563	126	0
6	11565	126	0
6	11565	126	0
6	11567	126	0
6	11567	126	0
6	11688	127	0
6	11688	127	0
6	11689	127	0
6	11689	127	0
6	11690	127	0
6	11690	127	0
6	11691	127	0
6	11691	127	0
6	11792	128	0
6	11792	128	0
6	11794	128	0
6	11794	128	0
6	11796	128	0
6	11796	128	0
6	11798	128	0
6	11798	128	0
6	11944	129	0
6	11944	129	0
6	11946	129	0
6	11946	129	0
6	11948	129	0
6	11948	129	0
6	12084	130	0
6	12084	130	0
6	12175	131	0
6	12175	131	0
6	12177	131	0
6	12177	131	0
6	12179	131	0
6	12179	131	0
6	12181	131	0
6	12181	131	0
6	12332	132	0
6	12332	132	0
6	12334	132	0
6	12334	132	0
6	12336	132	0
6	12336	132	0
6	12338	132	0
6	12338	132	0
6	12472	133	0
6	12472	133	0
6	12473	133	0
6	12473	133	0
6	12474	133	0
6	12474	133	0
6	12475	133	0
6	12475	133	0
6	12573	134	0
6	12573	134	0
6	12575	134	0
6	12575	134	0
6	12577	134	0
6	12577	134	0
6	12579	134	0
6	12579	134	0
6	12725	135	0
6	12725	135	0
6	12727	135	0
6	12727	135	0
6	12729	135	0
6	12729	135	0
6	12862	136	0
6	12862	136	0
6	12960	137	0
6	12960	137	0
6	12962	137	0
6	12962	137	0
6	12964	137	0
6	12964	137	0
6	12966	137	0
6	12966	137	0
6	13114	138	0
6	13114	138	0
6	13116	138	0
6	13116	138	0
6	13118	138	0
6	13118	138	0
6	13120	138	0
6	13120	138	0
6	13238	139	0
6	13238	139	0
6	13239	139	0
6	13239	139	0
6	13240	139	0
6	13240	139	0
6	13241	139	0
6	13241	139	0
6	13346	140	0
6	13346	140	0
6	13348	140	0
6	13348	140	0
6	13350	140	0
6	13350	140	0
6	13352	140	0
6	13352	140	0
6	13500	141	0
6	13500	141	0
6	13502	141	0
6	13502	141	0
6	13504	141	0
6	13504	141	0
6	13637	142	0
6	13637	142	0
6	13735	143	0
6	13735	143	0
6	13737	143	0
6	13737	143	0
6	13739	143	0
6	13739	143	0
6	13741	143	0
6	13741	143	0
6	13889	144	0
6	13889	144	0
6	13891	144	0
6	13891	144	0
6	13893	144	0
6	13893	144	0
6	13895	144	0
6	13895	144	0
6	14013	145	0
6	14013	145	0
6	14014	145	0
6	14014	145	0
6	14015	145	0
6	14015	145	0
6	14016	145	0
6	14016	145	0
6	14121	146	0
6	14121	146	0
6	14123	146	0
6	14123	146	0
6	14125	146	0
6	14125	146	0
6	14127	146	0
6	14127	146	0
6	14275	147	0
6	14275	147	0
6	14277	147	0
6	14277	147	0
6	14279	147	0
6	14279	147	0
6	14412	148	0
6	14412	148	0
6	14510	149	0
6	14510	149	0
6	14512	149	0
6	14512	149	0
6	14514	149	0
6	14514	149	0
6	14516	149	0
6	14516	149	0
6	14664	150	0
6	14664	150	0
6	14666	150	0
6	14666	150	0
6	14668	150	0
6	14668	150	0
6	14670	150	0
6	14670	150	0
6	14788	151	0
6	14788	151	0
6	14789	151	0
6	14789	151	0
6	14790	151	0
6	14790	151	0
6	14791	151	0
6	14791	151	0
6	14896	152	0
6	14896	152	0
6	14898	152	0
6	14898	152	0
6	14900	152	0
6	14900	152	0
6	14902	152	0
6	14902	152	0
6	15050	153	0
6	15050	153	0
6	15052	153	0
6	15052	153	0
6	15054	153	0
6	15054	153	0
6	15187	154	0
6	15187	154	0
6	15285	155	0
6	15285	155	0
6	15287	155	0
6	15287	155	0
6	15289	155	0
6	15289	155	0
6	15291	155	0
6	15291	155	0
6	15439	156	0
6	15439	156	0
6	15441	156	0
6	15441	156	0
6	15443	156	0
6	15443	156	0
6	15445	156	0
6	15445	156	0
6	15563	157	0
6	15563	157	0
6	15564	157	0
6	15564	157	0
6	15565	157	0
6	15565	157	0
6	15566	157	0
6	15566	157	0
6	15671	158	0
6	15671	158	0
6	15673	158	0
6	15673	158	0
6	15675	158	0
6	15675	158	0
6	15677	158	0
6	15677	158	0
6	15825	159	0
6	15825	159	0
6	15827	159	0
6	15827	159	0
6	15829	159	0
6	15829	159	0
6	15962	160	0
6	15962	160	0
6	16060	161	0
6	16060	161	0
6	16062	161	0
6	16062	161	0
6	16064	161	0
6	16064	161	0
6	16066	161	0
6	16066	161	0
6	16214	162	0
6	16214	162	0
6	16216	162	0
6	16216	162	0
6	16218	162	0
6	16218	162	0
6	16220	162	0
6	16220	162	0
6	16338	163	0
6	16338	163	0
6	16339	163	0
6	16339	163	0
6	16340	163	0
6	16340	163	0
6	16341	163	0
6	16341	163	0
6	16446	164	0
6	16446	164	0
6	16448	164	0
6	16448	164	0
6	16450	164	0
6	16450	164	0
6	16452	164	0
6	16452	164	0
6	16600	165	0
6	16600	165	0
6	16602	165	0
6	16602	165	0
6	16604	165	0
6	16604	165	0
6	16737	166	0
6	16737	166	0
6	16835	167	0
6	16835	167	0
6	16837	167	0
6	16837	167	0
6	16839	167	0
6	16839	167	0
6	16841	167	0
6	16841	167	0
6	16989	168	0
6	16989	168	0
6	16991	168	0
6	16991	168	0
6	16993	168	0
6	16993	168	0
6	16995	168	0
6	16995	168	0
6	17113	169	0
6	17113	169	0
6	17114	169	0
6	17114	169	0
6	17115	169	0
6	17115	169	0
6	17116	169	0
6	17116	169	0
6	17221	170	0
6	17221	170	0
6	17223	170	0
6	17223	170	0
6	17225	170	0
6	17225	170	0
6	17227	170	0
6	17227	170	0
6	17375	171	0
6	17375	171	0
6	17377	171	0
6	17377	171	0
6	17379	171	0
6	17379	171	0
6	17512	172	0
6	17512	172	0
6	17610	173	0
6	17610	173	0
6	17612	173	0
6	17612	173	0
6	17614	173	0
6	17614	173	0
6	17616	173	0
6	17616	173	0
6	17764	174	0
6	17764	174	0
6	17766	174	0
6	17766	174	0
6	17768	174	0
6	17768	174	0
6	17770	174	0
6	17770	174	0
6	17888	175	0
6	17888	175	0
6	17889	175	0
6	17889	175	0
6	17890	175	0
6	17890	175	0
6	17891	175	0
6	17891	175	0
6	17996	176	0
6	17996	176	0
6	17998	176	0
6	17998	176	0
6	18000	176	0
6	18000	176	0
6	18002	176	0
6	18002	176	0
6	18150	177	0
6	18150	177	0
6	18152	177	0
6	18152	177	0
6	18154	177	0
6	18154	177	0
6	18287	178	0
6	18287	178	0
6	18385	179	0
6	18385	179	0
6	18387	179	0
6	18387	179	0
6	18389	179	0
6	18389	179	0
6	18391	179	0
6	18391	179	0
6	18539	180	0
6	18539	180	0
6	18541	180	0
6	18541	180	0
6	18543	180	0
6	18543	180	0
6	18545	180	0
6	18545	180	0
6	18663	181	0
6	18663	181	0
6	18664	181	0
6	18664	181	0
6	18665	181	0
6	18665	181	0
6	18666	181	0
6	18666	181	0
6	18771	182	0
6	18771	182	0
6	18773	182	0
6	18773	182	0
6	18775	182	0
6	18775	182	0
6	18777	182	0
6	18777	182	0
6	18925	183	0
6	18925	183	0
6	18927	183	0
6	18927	183	0
6	18929	183	0
6	18929	183	0
6	19062	184	0
6	19062	184	0
6	19160	185	0
6	19160	185	0
6	19162	185	0
6	19162	185	0
6	19164	185	0
6	19164	185	0
6	19166	185	0
6	19166	185	0
6	19314	186	0
6	19314	186	0
6	19316	186	0
6	19316	186	0
6	19318	186	0
6	19318	186	0
6	19320	186	0
6	19320	186	0
6	19438	187	0
6	19438	187	0
6	19439	187	0
6	19439	187	0
6	19440	187	0
6	19440	187	0
6	19441	187	0
6	19441	187	0
6	19538	188	0
6	19538	188	0
6	19540	188	0
6	19540	188	0
6	19542	188	0
6	19542	188	0
6	19544	188	0
6	19544	188	0
6	19684	189	0
6	19684	189	0
6	19686	189	0
6	19686	189	0
6	19688	189	0
6	19688	189	0
6	19818	190	0
6	19818	190	0
6	19911	191	0
6	19911	191	0
6	19913	191	0
6	19913	191	0
6	19915	191	0
6	19915	191	0
6	19917	191	0
6	19917	191	0
6	20057	192	0
6	20057	192	0
6	20059	192	0
6	20059	192	0
6	20061	192	0
6	20061	192	0
6	20063	192	0
6	20063	192	0
6	20168	193	0
6	20168	193	0
6	20169	193	0
6	20169	193	0
6	20170	193	0
6	20170	193	0
6	20171	193	0
6	20171	193	0
6	20250	194	0
6	20250	194	0
6	20252	194	0
6	20252	194	0
6	20254	194	0
6	20254	194	0
6	20256	194	0
6	20256	194	0
6	20369	195	0
6	20369	195	0
6	20371	195	0
6	20371	195	0
6	20373	195	0
6	20373	195	0
6	20460	196	0
6	20460	196	0
6	20500	197	0
6	20500	197	0
6	20502	197	0
6	20502	197	0
6	20504	197	0
6	20504	197	0
6	20506	197	0
6	20506	197	0
6	20588	198	0
6	20588	198	0
6	20590	198	0
6	20590	198	0
6	20592	198	0
6	20592	198	0
6	20668	199	0
6	20668	199	0
6	20669	199	0
6	20669	199	0
6	20711	200	0
6	20711	200	0
6	20757	201	0
6	20757	201	0
6	20808	203	0
6	20808	203	0
6	20842	204	0
6	20842	204	0
6	20847	205	0
6	20847	205	0
6	20853	206	0
6	20853	206	0
6	20854	206	0
6	20854	206	0
7	31	16	0
7	31	16	0
7	79	22	0
7	79	22	0
7	107	35	0
7	107	35	0
7	126	36	0
7	126	36	0
7	145	37	0
7	145	37	0
7	203	38	0
7	203	38	0
7	275	39	0
7	275	39	0
7	347	40	0
7	347	40	0
7	399	41	0
7	399	41	0
7	401	41	1
7	451	41	2
7	466	41	1
7	483	41	2
7	486	41	1
7	491	41	0
7	528	42	0
7	528	42	0
7	530	42	1
7	580	42	2
7	595	42	1
7	612	42	2
7	615	42	1
7	620	42	0
7	657	43	0
7	657	43	0
7	659	43	1
7	706	43	2
7	720	43	1
7	734	43	2
7	735	43	1
7	739	43	0
7	798	44	0
7	798	44	0
7	801	44	1
7	855	44	2
7	871	44	1
7	880	44	2
7	888	44	1
7	894	44	0
7	954	45	0
7	954	45	0
7	957	45	1
7	1011	45	2
7	1027	45	1
7	1041	45	0
7	1088	46	0
7	1088	46	0
7	1215	47	0
7	1215	47	0
7	1218	47	1
7	1221	47	2
7	1274	47	3
7	1288	47	2
7	1302	47	1
7	1308	47	0
7	1367	48	0
7	1367	48	0
7	1370	48	1
7	1373	48	2
7	1404	48	3
7	1414	48	2
7	1423	48	1
7	1428	48	0
7	1484	49	0
7	1484	49	0
7	1486	49	1
7	1488	49	2
7	1489	49	3
7	1546	49	2
7	1558	49	1
7	1562	49	0
7	1639	50	0
7	1639	50	0
7	1642	50	1
7	1646	50	2
7	1649	50	3
7	1711	50	2
7	1725	50	1
7	1731	50	0
7	1802	51	0
7	1802	51	0
7	1805	51	1
7	1809	51	2
7	1873	51	1
7	1883	51	0
7	1944	52	0
7	1944	52	0
7	2091	53	0
7	2091	53	0
7	2095	53	1
7	2098	53	2
7	2102	53	3
7	2168	53	2
7	2174	53	1
7	2178	53	0
7	2251	54	0
7	2251	54	0
7	2255	54	1
7	2258	54	2
7	2262	54	3
7	2309	54	2
7	2315	54	1
7	2319	54	0
7	2372	55	0
7	2372	55	0
7	2374	55	1
7	2376	55	2
7	2378	55	3
7	2417	55	2
7	2420	55	1
7	2422	55	0
7	2503	56	0
7	2503	56	0
7	2506	56	1
7	2510	56	2
7	2514	56	3
7	2578	56	2
7	2584	56	1
7	2588	56	0
7	2663	57	0
7	2663	57	0
7	2666	57	1
7	2670	57	2
7	2735	57	1
7	2740	57	0
7	2797	58	0
7	2797	58	0
7	2937	59	0
7	2937	59	0
7	2941	59	1
7	2944	59	2
7	2948	59	3
7	2996	59	2
7	3002	59	1
7	3006	59	0
7	3071	60	0
7	3071	60	0
7	3075	60	1
7	3078	60	2
7	3082	60	3
7	3142	60	2
7	3148	60	1
7	3152	60	0
7	3209	61	0
7	3209	61	0
7	3211	61	1
7	3213	61	2
7	3215	61	3
7	3249	61	2
7	3252	61	1
7	3254	61	0
7	3331	62	0
7	3331	62	0
7	3334	62	1
7	3338	62	2
7	3342	62	3
7	3400	62	2
7	3406	62	1
7	3410	62	0
7	3481	63	0
7	3481	63	0
7	3484	63	1
7	3488	63	2
7	3540	63	1
7	3545	63	0
7	3598	64	0
7	3598	64	0
7	3735	65	0
7	3735	65	0
7	3739	65	1
7	3742	65	2
7	3746	65	3
7	3812	65	2
7	3818	65	1
7	3822	65	0
7	3891	66	0
7	3891	66	0
7	3895	66	1
7	3898	66	2
7	3902	66	3
7	3941	66	2
7	3947	66	1
7	3951	66	0
7	4008	67	0
7	4008	67	0
7	4010	67	1
7	4012	67	2
7	4014	67	3
7	4053	67	2
7	4056	67	1
7	4058	67	0
7	4139	68	0
7	4139	68	0
7	4142	68	1
7	4146	68	2
7	4150	68	3
7	4211	68	2
7	4217	68	1
7	4221	68	0
7	4288	69	0
7	4288	69	0
7	4291	69	1
7	4295	69	2
7	4363	69	1
7	4368	69	0
7	4425	70	0
7	4425	70	0
7	4552	71	0
7	4552	71	0
7	4556	71	1
7	4559	71	2
7	4563	71	3
7	4608	71	2
7	4614	71	1
7	4618	71	0
7	4683	72	0
7	4683	72	0
7	4687	72	1
7	4690	72	2
7	4694	72	3
7	4741	72	2
7	4747	72	1
7	4751	72	0
7	4808	73	0
7	4808	73	0
7	4810	73	1
7	4812	73	2
7	4814	73	3
7	4845	73	2
7	4848	73	1
7	4850	73	0
7	4923	74	0
7	4923	74	0
7	4926	74	1
7	4930	74	2
7	4934	74	3
7	4997	74	2
7	5003	74	1
7	5007	74	0
7	5078	75	0
7	5078	75	0
7	5081	75	1
7	5085	75	2
7	5135	75	1
7	5140	75	0
7	5197	76	0
7	5197	76	0
7	5314	77	0
7	5314	77	0
7	5318	77	1
7	5321	77	2
7	5325	77	3
7	5388	77	2
7	5394	77	1
7	5398	77	0
7	5471	78	0
7	5471	78	0
7	5475	78	1
7	5478	78	2
7	5482	78	3
7	5524	78	2
7	5530	78	1
7	5534	78	0
7	5587	79	0
7	5587	79	0
7	5589	79	1
7	5591	79	2
7	5593	79	3
7	5627	79	2
7	5630	79	1
7	5632	79	0
7	5705	80	0
7	5705	80	0
7	5708	80	1
7	5712	80	2
7	5716	80	3
7	5769	80	2
7	5775	80	1
7	5779	80	0
7	5854	81	0
7	5854	81	0
7	5857	81	1
7	5861	81	2
7	5923	81	1
7	5928	81	0
7	5985	82	0
7	5985	82	0
7	6106	83	0
7	6106	83	0
7	6110	83	1
7	6113	83	2
7	6117	83	3
7	6178	83	2
7	6184	83	1
7	6188	83	0
7	6257	84	0
7	6257	84	0
7	6261	84	1
7	6264	84	2
7	6268	84	3
7	6315	84	2
7	6321	84	1
7	6325	84	0
7	6374	85	0
7	6374	85	0
7	6376	85	1
7	6378	85	2
7	6380	85	3
7	6411	85	2
7	6414	85	1
7	6416	85	0
7	6489	86	0
7	6489	86	0
7	6492	86	1
7	6496	86	2
7	6500	86	3
7	6558	86	2
7	6564	86	1
7	6568	86	0
7	6639	87	0
7	6639	87	0
7	6642	87	1
7	6646	87	2
7	6708	87	1
7	6713	87	0
7	6762	88	0
7	6762	88	0
7	6882	89	0
7	6882	89	0
7	6886	89	1
7	6889	89	2
7	6893	89	3
7	6948	89	2
7	6954	89	1
7	6958	89	0
7	7023	90	0
7	7023	90	0
7	7027	90	1
7	7030	90	2
7	7034	90	3
7	7073	90	2
7	7079	90	1
7	7083	90	0
7	7136	91	0
7	7136	91	0
7	7138	91	1
7	7140	91	2
7	7142	91	3
7	7179	91	2
7	7182	91	1
7	7184	91	0
7	7257	92	0
7	7257	92	0
7	7260	92	1
7	7264	92	2
7	7268	92	3
7	7318	92	2
7	7324	92	1
7	7328	92	0
7	7399	93	0
7	7399	93	0
7	7402	93	1
7	7406	93	2
7	7450	93	1
7	7455	93	0
7	7508	94	0
7	7508	94	0
7	7634	95	0
7	7634	95	0
7	7638	95	1
7	7641	95	2
7	7645	95	3
7	7711	95	2
7	7717	95	1
7	7721	95	0
7	7786	96	0
7	7786	96	0
7	7790	96	1
7	7793	96	2
7	7797	96	3
7	7836	96	2
7	7842	96	1
7	7846	96	0
7	7895	97	0
7	7895	97	0
7	7897	97	1
7	7899	97	2
7	7901	97	3
7	7938	97	2
7	7941	97	1
7	7943	97	0
7	8020	98	0
7	8020	98	0
7	8023	98	1
7	8027	98	2
7	8031	98	3
7	8081	98	2
7	8087	98	1
7	8091	98	0
7	8158	99	0
7	8158	99	0
7	8161	99	1
7	8165	99	2
7	8222	99	1
7	8227	99	0
7	8280	100	0
7	8280	100	0
7	8393	101	0
7	8393	101	0
7	8397	101	1
7	8400	101	2
7	8404	101	3
7	8470	101	2
7	8476	101	1
7	8480	101	0
7	8549	102	0
7	8549	102	0
7	8553	102	1
7	8556	102	2
7	8560	102	3
7	8599	102	2
7	8605	102	1
7	8609	102	0
7	8662	103	0
7	8662	103	0
7	8664	103	1
7	8666	103	2
7	8668	103	3
7	8704	103	2
7	8707	103	1
7	8709	103	0
7	8782	104	0
7	8782	104	0
7	8785	104	1
7	8789	104	2
7	8793	104	3
7	8838	104	2
7	8844	104	1
7	8848	104	0
7	8915	105	0
7	8915	105	0
7	8918	105	1
7	8922	105	2
7	8981	105	1
7	8986	105	0
7	9039	106	0
7	9039	106	0
7	9152	107	0
7	9152	107	0
7	9156	107	1
7	9159	107	2
7	9163	107	3
7	9221	107	2
7	9227	107	1
7	9231	107	0
7	9300	108	0
7	9300	108	0
7	9304	108	1
7	9307	108	2
7	9311	108	3
7	9358	108	2
7	9364	108	1
7	9368	108	0
7	9417	109	0
7	9417	109	0
7	9419	109	1
7	9421	109	2
7	9423	109	3
7	9454	109	2
7	9457	109	1
7	9459	109	0
7	9540	110	0
7	9540	110	0
7	9543	110	1
7	9547	110	2
7	9551	110	3
7	9598	110	2
7	9604	110	1
7	9608	110	0
7	9675	111	0
7	9675	111	0
7	9678	111	1
7	9682	111	2
7	9739	111	1
7	9744	111	0
7	9797	112	0
7	9797	112	0
7	9923	113	0
7	9923	113	0
7	9927	113	1
7	9930	113	2
7	9934	113	3
7	9987	113	2
7	9993	113	1
7	9997	113	0
7	10062	114	0
7	10062	114	0
7	10066	114	1
7	10069	114	2
7	10073	114	3
7	10120	114	2
7	10126	114	1
7	10130	114	0
7	10179	115	0
7	10179	115	0
7	10181	115	1
7	10183	115	2
7	10185	115	3
7	10229	115	2
7	10232	115	1
7	10234	115	0
7	10315	116	0
7	10315	116	0
7	10318	116	1
7	10322	116	2
7	10326	116	3
7	10384	116	2
7	10390	116	1
7	10394	116	0
7	10461	117	0
7	10461	117	0
7	10464	117	1
7	10468	117	2
7	10520	117	1
7	10525	117	0
7	10574	118	0
7	10574	118	0
7	10700	119	0
7	10700	119	0
7	10704	119	1
7	10707	119	2
7	10711	119	3
7	10769	119	2
7	10775	119	1
7	10779	119	0
7	10844	120	0
7	10844	120	0
7	10848	120	1
7	10851	120	2
7	10855	120	3
7	10902	120	2
7	10908	120	1
7	10912	120	0
7	10961	121	0
7	10961	121	0
7	10963	121	1
7	10965	121	2
7	10967	121	3
7	11009	121	2
7	11012	121	1
7	11014	121	0
7	11087	122	0
7	11087	122	0
7	11090	122	1
7	11094	122	2
7	11098	122	3
7	11156	122	2
7	11162	122	1
7	11166	122	0
7	11233	123	0
7	11233	123	0
7	11236	123	1
7	11240	123	2
7	11302	123	1
7	11307	123	0
7	11356	124	0
7	11356	124	0
7	11469	125	0
7	11469	125	0
7	11473	125	1
7	11476	125	2
7	11480	125	3
7	11538	125	2
7	11544	125	1
7	11548	125	0
7	11613	126	0
7	11613	126	0
7	11617	126	1
7	11620	126	2
7	11624	126	3
7	11668	126	2
7	11674	126	1
7	11678	126	0
7	11727	127	0
7	11727	127	0
7	11729	127	1
7	11731	127	2
7	11733	127	3
7	11775	127	2
7	11778	127	1
7	11780	127	0
7	11853	128	0
7	11853	128	0
7	11856	128	1
7	11860	128	2
7	11864	128	3
7	11922	128	2
7	11928	128	1
7	11932	128	0
7	11999	129	0
7	11999	129	0
7	12002	129	1
7	12006	129	2
7	12068	129	1
7	12073	129	0
7	12122	130	0
7	12122	130	0
7	12235	131	0
7	12235	131	0
7	12239	131	1
7	12242	131	2
7	12246	131	3
7	12309	131	2
7	12315	131	1
7	12319	131	0
7	12384	132	0
7	12384	132	0
7	12388	132	1
7	12391	132	2
7	12395	132	3
7	12452	132	2
7	12458	132	1
7	12462	132	0
7	12511	133	0
7	12511	133	0
7	12513	133	1
7	12515	133	2
7	12517	133	3
7	12556	133	2
7	12559	133	1
7	12561	133	0
7	12634	134	0
7	12634	134	0
7	12637	134	1
7	12641	134	2
7	12645	134	3
7	12703	134	2
7	12709	134	1
7	12713	134	0
7	12778	135	0
7	12778	135	0
7	12781	135	1
7	12785	135	2
7	12845	135	1
7	12851	135	0
7	12900	136	0
7	12900	136	0
7	13018	137	0
7	13018	137	0
7	13022	137	1
7	13025	137	2
7	13028	137	3
7	13086	137	2
7	13096	137	1
7	13101	137	0
7	13164	138	0
7	13164	138	0
7	13168	138	1
7	13171	138	2
7	13174	138	3
7	13213	138	2
7	13223	138	1
7	13228	138	0
7	13275	139	0
7	13275	139	0
7	13277	139	1
7	13279	139	2
7	13280	139	3
7	13324	139	2
7	13331	139	1
7	13334	139	0
7	13405	140	0
7	13405	140	0
7	13408	140	1
7	13412	140	2
7	13415	140	3
7	13473	140	2
7	13483	140	1
7	13488	140	0
7	13553	141	0
7	13553	141	0
7	13556	141	1
7	13560	141	2
7	13620	141	1
7	13626	141	0
7	13675	142	0
7	13675	142	0
7	13793	143	0
7	13793	143	0
7	13797	143	1
7	13800	143	2
7	13803	143	3
7	13861	143	2
7	13871	143	1
7	13876	143	0
7	13939	144	0
7	13939	144	0
7	13943	144	1
7	13946	144	2
7	13949	144	3
7	13988	144	2
7	13998	144	1
7	14003	144	0
7	14050	145	0
7	14050	145	0
7	14052	145	1
7	14054	145	2
7	14055	145	3
7	14099	145	2
7	14106	145	1
7	14109	145	0
7	14180	146	0
7	14180	146	0
7	14183	146	1
7	14187	146	2
7	14190	146	3
7	14248	146	2
7	14258	146	1
7	14263	146	0
7	14328	147	0
7	14328	147	0
7	14331	147	1
7	14335	147	2
7	14395	147	1
7	14401	147	0
7	14450	148	0
7	14450	148	0
7	14568	149	0
7	14568	149	0
7	14572	149	1
7	14575	149	2
7	14578	149	3
7	14636	149	2
7	14646	149	1
7	14651	149	0
7	14714	150	0
7	14714	150	0
7	14718	150	1
7	14721	150	2
7	14724	150	3
7	14763	150	2
7	14773	150	1
7	14778	150	0
7	14825	151	0
7	14825	151	0
7	14827	151	1
7	14829	151	2
7	14830	151	3
7	14874	151	2
7	14881	151	1
7	14884	151	0
7	14955	152	0
7	14955	152	0
7	14958	152	1
7	14962	152	2
7	14965	152	3
7	15023	152	2
7	15033	152	1
7	15038	152	0
7	15103	153	0
7	15103	153	0
7	15106	153	1
7	15110	153	2
7	15170	153	1
7	15176	153	0
7	15225	154	0
7	15225	154	0
7	15343	155	0
7	15343	155	0
7	15347	155	1
7	15350	155	2
7	15353	155	3
7	15411	155	2
7	15421	155	1
7	15426	155	0
7	15489	156	0
7	15489	156	0
7	15493	156	1
7	15496	156	2
7	15499	156	3
7	15538	156	2
7	15548	156	1
7	15553	156	0
7	15600	157	0
7	15600	157	0
7	15602	157	1
7	15604	157	2
7	15605	157	3
7	15649	157	2
7	15656	157	1
7	15659	157	0
7	15730	158	0
7	15730	158	0
7	15733	158	1
7	15737	158	2
7	15740	158	3
7	15798	158	2
7	15808	158	1
7	15813	158	0
7	15878	159	0
7	15878	159	0
7	15881	159	1
7	15885	159	2
7	15945	159	1
7	15951	159	0
7	16000	160	0
7	16000	160	0
7	16118	161	0
7	16118	161	0
7	16122	161	1
7	16125	161	2
7	16128	161	3
7	16186	161	2
7	16196	161	1
7	16201	161	0
7	16264	162	0
7	16264	162	0
7	16268	162	1
7	16271	162	2
7	16274	162	3
7	16313	162	2
7	16323	162	1
7	16328	162	0
7	16375	163	0
7	16375	163	0
7	16377	163	1
7	16379	163	2
7	16380	163	3
7	16424	163	2
7	16431	163	1
7	16434	163	0
7	16505	164	0
7	16505	164	0
7	16508	164	1
7	16512	164	2
7	16515	164	3
7	16573	164	2
7	16583	164	1
7	16588	164	0
7	16653	165	0
7	16653	165	0
7	16656	165	1
7	16660	165	2
7	16720	165	1
7	16726	165	0
7	16775	166	0
7	16775	166	0
7	16893	167	0
7	16893	167	0
7	16897	167	1
7	16900	167	2
7	16903	167	3
7	16961	167	2
7	16971	167	1
7	16976	167	0
7	17039	168	0
7	17039	168	0
7	17043	168	1
7	17046	168	2
7	17049	168	3
7	17088	168	2
7	17098	168	1
7	17103	168	0
7	17150	169	0
7	17150	169	0
7	17152	169	1
7	17154	169	2
7	17155	169	3
7	17199	169	2
7	17206	169	1
7	17209	169	0
7	17280	170	0
7	17280	170	0
7	17283	170	1
7	17287	170	2
7	17290	170	3
7	17348	170	2
7	17358	170	1
7	17363	170	0
7	17428	171	0
7	17428	171	0
7	17431	171	1
7	17435	171	2
7	17495	171	1
7	17501	171	0
7	17550	172	0
7	17550	172	0
7	17668	173	0
7	17668	173	0
7	17672	173	1
7	17675	173	2
7	17678	173	3
7	17736	173	2
7	17746	173	1
7	17751	173	0
7	17814	174	0
7	17814	174	0
7	17818	174	1
7	17821	174	2
7	17824	174	3
7	17863	174	2
7	17873	174	1
7	17878	174	0
7	17925	175	0
7	17925	175	0
7	17927	175	1
7	17929	175	2
7	17930	175	3
7	17974	175	2
7	17981	175	1
7	17984	175	0
7	18055	176	0
7	18055	176	0
7	18058	176	1
7	18062	176	2
7	18065	176	3
7	18123	176	2
7	18133	176	1
7	18138	176	0
7	18203	177	0
7	18203	177	0
7	18206	177	1
7	18210	177	2
7	18270	177	1
7	18276	177	0
7	18325	178	0
7	18325	178	0
7	18443	179	0
7	18443	179	0
7	18447	179	1
7	18450	179	2
7	18453	179	3
7	18511	179	2
7	18521	179	1
7	18526	179	0
7	18589	180	0
7	18589	180	0
7	18593	180	1
7	18596	180	2
7	18599	180	3
7	18638	180	2
7	18648	180	1
7	18653	180	0
7	18700	181	0
7	18700	181	0
7	18702	181	1
7	18704	181	2
7	18705	181	3
7	18749	181	2
7	18756	181	1
7	18759	181	0
7	18830	182	0
7	18830	182	0
7	18833	182	1
7	18837	182	2
7	18840	182	3
7	18898	182	2