version 2
run General-0-20150310-09:57:55-32087
attr configname General
attr datetime 20150310-09:57:55
attr experiment General
attr inifile omnetpp.ini
attr iterationvars ""
attr iterationvars2 $repetition=0
attr measurement ""
attr network randPrefNet
attr processid 32087
attr repetition 0
attr replication #0
attr resultdir results
attr runnumber 0
attr seedset 0

vector 0  randPrefNet.R1I1.ipcProcess[0].flowAllocator.faiTable  ft-size:vector  ETV
attr source  FT_FlowTableSize
attr title  "FlowTable Size, vector"
vector 1  randPrefNet.R1I1.ipcProcess[1].flowAllocator.faiTable  ft-size:vector  ETV
attr source  FT_FlowTableSize
attr title  "FlowTable Size, vector"
vector 2  randPrefNet.R1I1.ipcProcess[2].flowAllocator.faiTable  ft-size:vector  ETV
attr source  FT_FlowTableSize
attr title  "FlowTable Size, vector"
vector 3  randPrefNet.R1I1.ipcProcess[3].flowAllocator.faiTable  ft-size:vector  ETV
attr source  FT_FlowTableSize
attr title  "FlowTable Size, vector"
vector 5  randPrefNet.R1I2.ipcProcess[0].flowAllocator.faiTable  ft-size:vector  ETV
attr source  FT_FlowTableSize
attr title  "FlowTable Size, vector"
vector 6  randPrefNet.R1I2.ipcProcess[1].flowAllocator.faiTable  ft-size:vector  ETV
attr source  FT_FlowTableSize
attr title  "FlowTable Size, vector"
vector 7  randPrefNet.R1I2.ipcProcess[2].flowAllocator.faiTable  ft-size:vector  ETV
attr source  FT_FlowTableSize
attr title  "FlowTable Size, vector"
vector 8  randPrefNet.R1I2.ipcProcess[3].flowAllocator.faiTable  ft-size:vector  ETV
attr source  FT_FlowTableSize
attr title  "FlowTable Size, vector"
vector 11  randPrefNet.R1I3.ipcProcess[1].flowAllocator.faiTable  ft-size:vector  ETV
attr source  FT_FlowTableSize
attr title  "FlowTable Size, vector"
vector 12  randPrefNet.R1I3.ipcProcess[2].flowAllocator.faiTable  ft-size:vector  ETV
attr source  FT_FlowTableSize
attr title  "FlowTable Size, vector"
vector 13  randPrefNet.R1I3.ipcProcess[3].flowAllocator.faiTable  ft-size:vector  ETV
attr source  FT_FlowTableSize
attr title  "FlowTable Size, vector"
vector 14  randPrefNet.R1I3.ipcProcess[4].flowAllocator.faiTable  ft-size:vector  ETV
attr source  FT_FlowTableSize
attr title  "FlowTable Size, vector"
vector 15  randPrefNet.R1I3.ipcProcess[5].flowAllocator.faiTable  ft-size:vector  ETV
attr source  FT_FlowTableSize
attr title  "FlowTable Size, vector"
vector 19  randPrefNet.R1I4.ipcProcess[2].flowAllocator.faiTable  ft-size:vector  ETV
attr source  FT_FlowTableSize
attr title  "FlowTable Size, vector"
vector 20  randPrefNet.R1I4.ipcProcess[3].flowAllocator.faiTable  ft-size:vector  ETV
attr source  FT_FlowTableSize
attr title  "FlowTable Size, vector"
vector 21  randPrefNet.R1I4.ipcProcess[4].flowAllocator.faiTable  ft-size:vector  ETV
attr source  FT_FlowTableSize
attr title  "FlowTable Size, vector"
vector 26  randPrefNet.R1I5.ipcProcess[3].flowAllocator.faiTable  ft-size:vector  ETV
attr source  FT_FlowTableSize
attr title  "FlowTable Size, vector"
vector 27  randPrefNet.R1I5.ipcProcess[4].flowAllocator.faiTable  ft-size:vector  ETV
attr source  FT_FlowTableSize
attr title  "FlowTable Size, vector"
vector 28  randPrefNet.R1I5.ipcProcess[5].flowAllocator.faiTable  ft-size:vector  ETV
attr source  FT_FlowTableSize
attr title  "FlowTable Size, vector"
vector 30  randPrefNet.R1I6.ipcProcess[0].flowAllocator.faiTable  ft-size:vector  ETV
attr source  FT_FlowTableSize
attr title  "FlowTable Size, vector"
vector 31  randPrefNet.R1I6.ipcProcess[1].flowAllocator.faiTable  ft-size:vector  ETV
attr source  FT_FlowTableSize
attr title  "FlowTable Size, vector"
vector 32  randPrefNet.R1I6.ipcProcess[2].flowAllocator.faiTable  ft-size:vector  ETV
attr source  FT_FlowTableSize
attr title  "FlowTable Size, vector"
vector 33  randPrefNet.R1I6.ipcProcess[3].flowAllocator.faiTable  ft-size:vector  ETV
attr source  FT_FlowTableSize
attr title  "FlowTable Size, vector"
vector 38  randPrefNet.R1I7.ipcProcess[3].flowAllocator.faiTable  ft-size:vector  ETV
attr source  FT_FlowTableSize
attr title  "FlowTable Size, vector"
vector 39  randPrefNet.R1I7.ipcProcess[4].flowAllocator.faiTable  ft-size:vector  ETV
attr source  FT_FlowTableSize
attr title  "FlowTable Size, vector"
vector 40  randPrefNet.R1I7.ipcProcess[5].flowAllocator.faiTable  ft-size:vector  ETV
attr source  FT_FlowTableSize
attr title  "FlowTable Size, vector"
vector 41  randPrefNet.R1I7.ipcProcess[6].flowAllocator.faiTable  ft-size:vector  ETV
attr source  FT_FlowTableSize
attr title  "FlowTable Size, vector"
vector 45  randPrefNet.R1I8.ipcProcess[2].flowAllocator.faiTable  ft-size:vector  ETV
attr source  FT_FlowTableSize
attr title  "FlowTable Size, vector"
vector 46  randPrefNet.R1I8.ipcProcess[3].flowAllocator.faiTable  ft-size:vector  ETV
attr source  FT_FlowTableSize
attr title  "FlowTable Size, vector"
vector 47  randPrefNet.R1I8.ipcProcess[4].flowAllocator.faiTable  ft-size:vector  ETV
attr source  FT_FlowTableSize
attr title  "FlowTable Size, vector"
vector 52  randPrefNet.R1I9.ipcProcess[3].flowAllocator.faiTable  ft-size:vector  ETV
attr source  FT_FlowTableSize
attr title  "FlowTable Size, vector"
vector 53  randPrefNet.R1I9.ipcProcess[4].flowAllocator.faiTable  ft-size:vector  ETV
attr source  FT_FlowTableSize
attr title  "FlowTable Size, vector"
vector 57  randPrefNet.R1Ia.ipcProcess[2].flowAllocator.faiTable  ft-size:vector  ETV
attr source  FT_FlowTableSize
attr title  "FlowTable Size, vector"
vector 60  randPrefNet.R1Ib.ipcProcess[1].flowAllocator.faiTable  ft-size:vector  ETV
attr source  FT_FlowTableSize
attr title  "FlowTable Size, vector"
vector 65  randPrefNet.R1Ic.ipcProcess[3].flowAllocator.faiTable  ft-size:vector  ETV
attr source  FT_FlowTableSize
attr title  "FlowTable Size, vector"
vector 68  randPrefNet.R1Id.ipcProcess[1].flowAllocator.faiTable  ft-size:vector  ETV
attr source  FT_FlowTableSize
attr title  "FlowTable Size, vector"
vector 80  randPrefNet.R1If.ipcProcess[3].flowAllocator.faiTable  ft-size:vector  ETV
attr source  FT_FlowTableSize
attr title  "FlowTable Size, vector"
vector 81  randPrefNet.R1If.ipcProcess[4].flowAllocator.faiTable  ft-size:vector  ETV
attr source  FT_FlowTableSize
attr title  "FlowTable Size, vector"
vector 83  randPrefNet.R2I1.ipcProcess[0].flowAllocator.faiTable  ft-size:vector  ETV
attr source  FT_FlowTableSize
attr title  "FlowTable Size, vector"
vector 84  randPrefNet.R2I1.ipcProcess[1].flowAllocator.faiTable  ft-size:vector  ETV
attr source  FT_FlowTableSize
attr title  "FlowTable Size, vector"
vector 86  randPrefNet.R2I10.ipcProcess[0].flowAllocator.faiTable  ft-size:vector  ETV
attr source  FT_FlowTableSize
attr title  "FlowTable Size, vector"
vector 87  randPrefNet.R2I10.ipcProcess[1].flowAllocator.faiTable  ft-size:vector  ETV
attr source  FT_FlowTableSize
attr title  "FlowTable Size, vector"
vector 89  randPrefNet.R2I2.ipcProcess[0].flowAllocator.faiTable  ft-size:vector  ETV
attr source  FT_FlowTableSize
attr title  "FlowTable Size, vector"
vector 90  randPrefNet.R2I2.ipcProcess[1].flowAllocator.faiTable  ft-size:vector  ETV
attr source  FT_FlowTableSize
attr title  "FlowTable Size, vector"
vector 91  randPrefNet.R2I2.ipcProcess[2].flowAllocator.faiTable  ft-size:vector  ETV
attr source  FT_FlowTableSize
attr title  "FlowTable Size, vector"
vector 92  randPrefNet.R2I2.ipcProcess[3].flowAllocator.faiTable  ft-size:vector  ETV
attr source  FT_FlowTableSize
attr title  "FlowTable Size, vector"
vector 94  randPrefNet.R2I2.ipcProcess[5].flowAllocator.faiTable  ft-size:vector  ETV
attr source  FT_FlowTableSize
attr title  "FlowTable Size, vector"
vector 95  randPrefNet.R2I2.ipcProcess[6].flowAllocator.faiTable  ft-size:vector  ETV
attr source  FT_FlowTableSize
attr title  "FlowTable Size, vector"
vector 96  randPrefNet.R2I2.ipcProcess[7].flowAllocator.faiTable  ft-size:vector  ETV
attr source  FT_FlowTableSize
attr title  "FlowTable Size, vector"
vector 97  randPrefNet.R2I2.ipcProcess[8].flowAllocator.faiTable  ft-size:vector  ETV
attr source  FT_FlowTableSize
attr title  "FlowTable Size, vector"
vector 101  randPrefNet.R2I3.ipcProcess[2].flowAllocator.faiTable  ft-size:vector  ETV
attr source  FT_FlowTableSize
attr title  "FlowTable Size, vector"
vector 102  randPrefNet.R2I3.ipcProcess[3].flowAllocator.faiTable  ft-size:vector  ETV
attr source  FT_FlowTableSize
attr title  "FlowTable Size, vector"
vector 103  randPrefNet.R2I3.ipcProcess[4].flowAllocator.faiTable  ft-size:vector  ETV
attr source  FT_FlowTableSize
attr title  "FlowTable Size, vector"
vector 104  randPrefNet.R2I3.ipcProcess[5].flowAllocator.faiTable  ft-size:vector  ETV
attr source  FT_FlowTableSize
attr title  "FlowTable Size, vector"
vector 105  randPrefNet.R2I3.ipcProcess[6].flowAllocator.faiTable  ft-size:vector  ETV
attr source  FT_FlowTableSize
attr title  "FlowTable Size, vector"
vector 106  randPrefNet.R2I3.ipcProcess[7].flowAllocator.faiTable  ft-size:vector  ETV
attr source  FT_FlowTableSize
attr title  "FlowTable Size, vector"
vector 109  randPrefNet.R2I4.ipcProcess[1].flowAllocator.faiTable  ft-size:vector  ETV
attr source  FT_FlowTableSize
attr title  "FlowTable Size, vector"
vector 110  randPrefNet.R2I4.ipcProcess[2].flowAllocator.faiTable  ft-size:vector  ETV
attr source  FT_FlowTableSize
attr title  "FlowTable Size, vector"
vector 111  randPrefNet.R2I4.ipcProcess[3].flowAllocator.faiTable  ft-size:vector  ETV
attr source  FT_FlowTableSize
attr title  "FlowTable Size, vector"
vector 112  randPrefNet.R2I4.ipcProcess[4].flowAllocator.faiTable  ft-size:vector  ETV
attr source  FT_FlowTableSize
attr title  "FlowTable Size, vector"
vector 114  randPrefNet.R2I5.ipcProcess[0].flowAllocator.faiTable  ft-size:vector  ETV
attr source  FT_FlowTableSize
attr title  "FlowTable Size, vector"
vector 115  randPrefNet.R2I5.ipcProcess[1].flowAllocator.faiTable  ft-size:vector  ETV
attr source  FT_FlowTableSize
attr title  "FlowTable Size, vector"
vector 116  randPrefNet.R2I5.ipcProcess[2].flowAllocator.faiTable  ft-size:vector  ETV
attr source  FT_FlowTableSize
attr title  "FlowTable Size, vector"
vector 117  randPrefNet.R2I5.ipcProcess[3].flowAllocator.faiTable  ft-size:vector  ETV
attr source  FT_FlowTableSize
attr title  "FlowTable Size, vector"
vector 120  randPrefNet.R2I6.ipcProcess[1].flowAllocator.faiTable  ft-size:vector  ETV
attr source  FT_FlowTableSize
attr title  "FlowTable Size, vector"
vector 121  randPrefNet.R2I6.ipcProcess[2].flowAllocator.faiTable  ft-size:vector  ETV
attr source  FT_FlowTableSize
attr title  "FlowTable Size, vector"
vector 122  randPrefNet.R2I6.ipcProcess[3].flowAllocator.faiTable  ft-size:vector  ETV
attr source  FT_FlowTableSize
attr title  "FlowTable Size, vector"
vector 128  randPrefNet.R2I8.ipcProcess[1].flowAllocator.faiTable  ft-size:vector  ETV
attr source  FT_FlowTableSize
attr title  "FlowTable Size, vector"
vector 131  randPrefNet.R2I9.ipcProcess[1].flowAllocator.faiTable  ft-size:vector  ETV
attr source  FT_FlowTableSize
attr title  "FlowTable Size, vector"
vector 133  randPrefNet.R2I9.ipcProcess[3].flowAllocator.faiTable  ft-size:vector  ETV
attr source  FT_FlowTableSize
attr title  "FlowTable Size, vector"
vector 134  randPrefNet.R2I9.ipcProcess[4].flowAllocator.faiTable  ft-size:vector  ETV
attr source  FT_FlowTableSize
attr title  "FlowTable Size, vector"
vector 140  randPrefNet.R2Ia.ipcProcess[4].flowAllocator.faiTable  ft-size:vector  ETV
attr source  FT_FlowTableSize
attr title  "FlowTable Size, vector"
vector 141  randPrefNet.R2Ia.ipcProcess[5].flowAllocator.faiTable  ft-size:vector  ETV
attr source  FT_FlowTableSize
attr title  "FlowTable Size, vector"
vector 142  randPrefNet.R2Ia.ipcProcess[6].flowAllocator.faiTable  ft-size:vector  ETV
attr source  FT_FlowTableSize
attr title  "FlowTable Size, vector"
vector 147  randPrefNet.R2Ib.ipcProcess[3].flowAllocator.faiTable  ft-size:vector  ETV
attr source  FT_FlowTableSize
attr title  "FlowTable Size, vector"
vector 152  randPrefNet.R2Ic.ipcProcess[3].flowAllocator.faiTable  ft-size:vector  ETV
attr source  FT_FlowTableSize
attr title  "FlowTable Size, vector"
vector 171  randPrefNet.R3I1.ipcProcess[0].flowAllocator.faiTable  ft-size:vector  ETV
attr source  FT_FlowTableSize
attr title  "FlowTable Size, vector"
vector 172  randPrefNet.R3I1.ipcProcess[1].flowAllocator.faiTable  ft-size:vector  ETV
attr source  FT_FlowTableSize
attr title  "FlowTable Size, vector"
vector 173  randPrefNet.R3I1.ipcProcess[2].flowAllocator.faiTable  ft-size:vector  ETV
attr source  FT_FlowTableSize
attr title  "FlowTable Size, vector"
vector 174  randPrefNet.R3I1.ipcProcess[3].flowAllocator.faiTable  ft-size:vector  ETV
attr source  FT_FlowTableSize
attr title  "FlowTable Size, vector"
vector 175  randPrefNet.R3I1.ipcProcess[4].flowAllocator.faiTable  ft-size:vector  ETV
attr source  FT_FlowTableSize
attr title  "FlowTable Size, vector"
vector 176  randPrefNet.R3I1.ipcProcess[5].flowAllocator.faiTable  ft-size:vector  ETV
attr source  FT_FlowTableSize
attr title  "FlowTable Size, vector"
vector 179  randPrefNet.R3I2.ipcProcess[1].flowAllocator.faiTable  ft-size:vector  ETV
attr source  FT_FlowTableSize
attr title  "FlowTable Size, vector"
vector 180  randPrefNet.R3I2.ipcProcess[2].flowAllocator.faiTable  ft-size:vector  ETV
attr source  FT_FlowTableSize
attr title  "FlowTable Size, vector"
vector 181  randPrefNet.R3I2.ipcProcess[3].flowAllocator.faiTable  ft-size:vector  ETV
attr source  FT_FlowTableSize
attr title  "FlowTable Size, vector"
vector 182  randPrefNet.R3I2.ipcProcess[4].flowAllocator.faiTable  ft-size:vector  ETV
attr source  FT_FlowTableSize
attr title  "FlowTable Size, vector"
vector 183  randPrefNet.R3I2.ipcProcess[5].flowAllocator.faiTable  ft-size:vector  ETV
attr source  FT_FlowTableSize
attr title  "FlowTable Size, vector"
vector 184  randPrefNet.R3I2.ipcProcess[6].flowAllocator.faiTable  ft-size:vector  ETV
attr source  FT_FlowTableSize
attr title  "FlowTable Size, vector"
vector 187  randPrefNet.R3I3.ipcProcess[1].flowAllocator.faiTable  ft-size:vector  ETV
attr source  FT_FlowTableSize
attr title  "FlowTable Size, vector"
vector 188  randPrefNet.R3I3.ipcProcess[2].flowAllocator.faiTable  ft-size:vector  ETV
attr source  FT_FlowTableSize
attr title  "FlowTable Size, vector"
vector 189  randPrefNet.R3I3.ipcProcess[3].flowAllocator.faiTable  ft-size:vector  ETV
attr source  FT_FlowTableSize
attr title  "FlowTable Size, vector"
vector 190  randPrefNet.R3I3.ipcProcess[4].flowAllocator.faiTable  ft-size:vector  ETV
attr source  FT_FlowTableSize
attr title  "FlowTable Size, vector"
vector 191  randPrefNet.R3I3.ipcProcess[5].flowAllocator.faiTable  ft-size:vector  ETV
attr source  FT_FlowTableSize
attr title  "FlowTable Size, vector"
vector 195  randPrefNet.R3I4.ipcProcess[2].flowAllocator.faiTable  ft-size:vector  ETV
attr source  FT_FlowTableSize
attr title  "FlowTable Size, vector"
vector 197  randPrefNet.R3I5.ipcProcess[0].flowAllocator.faiTable  ft-size:vector  ETV
attr source  FT_FlowTableSize
attr title  "FlowTable Size, vector"
vector 198  randPrefNet.R3I5.ipcProcess[1].flowAllocator.faiTable  ft-size:vector  ETV
attr source  FT_FlowTableSize
attr title  "FlowTable Size, vector"
vector 199  randPrefNet.R3I5.ipcProcess[2].flowAllocator.faiTable  ft-size:vector  ETV
attr source  FT_FlowTableSize
attr title  "FlowTable Size, vector"
vector 200  randPrefNet.R3I5.ipcProcess[3].flowAllocator.faiTable  ft-size:vector  ETV
attr source  FT_FlowTableSize
attr title  "FlowTable Size, vector"
vector 201  randPrefNet.R3I5.ipcProcess[4].flowAllocator.faiTable  ft-size:vector  ETV
attr source  FT_FlowTableSize
attr title  "FlowTable Size, vector"
vector 202  randPrefNet.R3I5.ipcProcess[5].flowAllocator.faiTable  ft-size:vector  ETV
attr source  FT_FlowTableSize
attr title  "FlowTable Size, vector"
vector 203  randPrefNet.R3I5.ipcProcess[6].flowAllocator.faiTable  ft-size:vector  ETV
attr source  FT_FlowTableSize
attr title  "FlowTable Size, vector"
vector 205  randPrefNet.R3I6.ipcProcess[0].flowAllocator.faiTable  ft-size:vector  ETV
attr source  FT_FlowTableSize
attr title  "FlowTable Size, vector"
vector 206  randPrefNet.R3I6.ipcProcess[1].flowAllocator.faiTable  ft-size:vector  ETV
attr source  FT_FlowTableSize
attr title  "FlowTable Size, vector"
vector 209  randPrefNet.R3I7.ipcProcess[1].flowAllocator.faiTable  ft-size:vector  ETV
attr source  FT_FlowTableSize
attr title  "FlowTable Size, vector"
vector 210  randPrefNet.R3I7.ipcProcess[2].flowAllocator.faiTable  ft-size:vector  ETV
attr source  FT_FlowTableSize
attr title  "FlowTable Size, vector"
vector 211  randPrefNet.R3I7.ipcProcess[3].flowAllocator.faiTable  ft-size:vector  ETV
attr source  FT_FlowTableSize
attr title  "FlowTable Size, vector"
vector 218  randPrefNet.R3I8.ipcProcess[5].flowAllocator.faiTable  ft-size:vector  ETV
attr source  FT_FlowTableSize
attr title  "FlowTable Size, vector"
vector 219  randPrefNet.R3I8.ipcProcess[6].flowAllocator.faiTable  ft-size:vector  ETV
attr source  FT_FlowTableSize
attr title  "FlowTable Size, vector"
vector 220  randPrefNet.R3I8.ipcProcess[7].flowAllocator.faiTable  ft-size:vector  ETV
attr source  FT_FlowTableSize
attr title  "FlowTable Size, vector"
vector 221  randPrefNet.R3I8.ipcProcess[8].flowAllocator.faiTable  ft-size:vector  ETV
attr source  FT_FlowTableSize
attr title  "FlowTable Size, vector"
vector 222  randPrefNet.R3I8.ipcProcess[9].flowAllocator.faiTable  ft-size:vector  ETV
attr source  FT_FlowTableSize
attr title  "FlowTable Size, vector"
vector 223  randPrefNet.R3I8.ipcProcess[10].flowAllocator.faiTable  ft-size:vector  ETV
attr source  FT_FlowTableSize
attr title  "FlowTable Size, vector"
vector 224  randPrefNet.R3I8.ipcProcess[11].flowAllocator.faiTable  ft-size:vector  ETV
attr source  FT_FlowTableSize
attr title  "FlowTable Size, vector"
vector 235  randPrefNet.R3Ia.ipcProcess[5].flowAllocator.faiTable  ft-size:vector  ETV
attr source  FT_FlowTableSize
attr title  "FlowTable Size, vector"
vector 236  randPrefNet.R3Ia.ipcProcess[6].flowAllocator.faiTable  ft-size:vector  ETV
attr source  FT_FlowTableSize
attr title  "FlowTable Size, vector"
vector 237  randPrefNet.R3Ia.ipcProcess[7].flowAllocator.faiTable  ft-size:vector  ETV
attr source  FT_FlowTableSize
attr title  "FlowTable Size, vector"
vector 246  randPrefNet.R3Ic.ipcProcess[2].flowAllocator.faiTable  ft-size:vector  ETV
attr source  FT_FlowTableSize
attr title  "FlowTable Size, vector"
vector 247  randPrefNet.R3Ic.ipcProcess[3].flowAllocator.faiTable  ft-size:vector  ETV
attr source  FT_FlowTableSize
attr title  "FlowTable Size, vector"
vector 248  randPrefNet.R3Ic.ipcProcess[4].flowAllocator.faiTable  ft-size:vector  ETV
attr source  FT_FlowTableSize
attr title  "FlowTable Size, vector"
vector 249  randPrefNet.R3Ic.ipcProcess[5].flowAllocator.faiTable  ft-size:vector  ETV
attr source  FT_FlowTableSize
attr title  "FlowTable Size, vector"
vector 251  randPrefNet.R4I1.ipcProcess[0].flowAllocator.faiTable  ft-size:vector  ETV
attr source  FT_FlowTableSize
attr title  "FlowTable Size, vector"
vector 252  randPrefNet.R4I1.ipcProcess[1].flowAllocator.faiTable  ft-size:vector  ETV
attr source  FT_FlowTableSize
attr title  "FlowTable Size, vector"
vector 253  randPrefNet.R4I1.ipcProcess[2].flowAllocator.faiTable  ft-size:vector  ETV
attr source  FT_FlowTableSize
attr title  "FlowTable Size, vector"
vector 254  randPrefNet.R4I1.ipcProcess[3].flowAllocator.faiTable  ft-size:vector  ETV
attr source  FT_FlowTableSize
attr title  "FlowTable Size, vector"
vector 255  randPrefNet.R4I1.ipcProcess[4].flowAllocator.faiTable  ft-size:vector  ETV
attr source  FT_FlowTableSize
attr title  "FlowTable Size, vector"
vector 256  randPrefNet.R4I1.ipcProcess[5].flowAllocator.faiTable  ft-size:vector  ETV
attr source  FT_FlowTableSize
attr title  "FlowTable Size, vector"
vector 258  randPrefNet.R4I2.ipcProcess[0].flowAllocator.faiTable  ft-size:vector  ETV
attr source  FT_FlowTableSize
attr title  "FlowTable Size, vector"
vector 259  randPrefNet.R4I2.ipcProcess[1].flowAllocator.faiTable  ft-size:vector  ETV
attr source  FT_FlowTableSize
attr title  "FlowTable Size, vector"
vector 260  randPrefNet.R4I2.ipcProcess[2].flowAllocator.faiTable  ft-size:vector  ETV
attr source  FT_FlowTableSize
attr title  "FlowTable Size, vector"
vector 261  randPrefNet.R4I2.ipcProcess[3].flowAllocator.faiTable  ft-size:vector  ETV
attr source  FT_FlowTableSize
attr title  "FlowTable Size, vector"
vector 264  randPrefNet.R4I3.ipcProcess[1].flowAllocator.faiTable  ft-size:vector  ETV
attr source  FT_FlowTableSize
attr title  "FlowTable Size, vector"
vector 266  randPrefNet.R4I4.ipcProcess[0].flowAllocator.faiTable  ft-size:vector  ETV
attr source  FT_FlowTableSize
attr title  "FlowTable Size, vector"
vector 267  randPrefNet.R4I4.ipcProcess[1].flowAllocator.faiTable  ft-size:vector  ETV
attr source  FT_FlowTableSize
attr title  "FlowTable Size, vector"
vector 268  randPrefNet.R4I4.ipcProcess[2].flowAllocator.faiTable  ft-size:vector  ETV
attr source  FT_FlowTableSize
attr title  "FlowTable Size, vector"
vector 269  randPrefNet.R4I4.ipcProcess[3].flowAllocator.faiTable  ft-size:vector  ETV
attr source  FT_FlowTableSize
attr title  "FlowTable Size, vector"
vector 270  randPrefNet.R4I4.ipcProcess[4].flowAllocator.faiTable  ft-size:vector  ETV
attr source  FT_FlowTableSize
attr title  "FlowTable Size, vector"
vector 272  randPrefNet.R4I4.ipcProcess[6].flowAllocator.faiTable  ft-size:vector  ETV
attr source  FT_FlowTableSize
attr title  "FlowTable Size, vector"
vector 277  randPrefNet.R4I5.ipcProcess[3].flowAllocator.faiTable  ft-size:vector  ETV
attr source  FT_FlowTableSize
attr title  "FlowTable Size, vector"
vector 282  randPrefNet.R4I6.ipcProcess[3].flowAllocator.faiTable  ft-size:vector  ETV
attr source  FT_FlowTableSize
attr title  "FlowTable Size, vector"
vector 283  randPrefNet.R4I6.ipcProcess[4].flowAllocator.faiTable  ft-size:vector  ETV
attr source  FT_FlowTableSize
attr title  "FlowTable Size, vector"
vector 284  randPrefNet.R4I6.ipcProcess[5].flowAllocator.faiTable  ft-size:vector  ETV
attr source  FT_FlowTableSize
attr title  "FlowTable Size, vector"
vector 285  randPrefNet.R4I6.ipcProcess[6].flowAllocator.faiTable  ft-size:vector  ETV
attr source  FT_FlowTableSize
attr title  "FlowTable Size, vector"
vector 286  randPrefNet.R4I6.ipcProcess[7].flowAllocator.faiTable  ft-size:vector  ETV
attr source  FT_FlowTableSize
attr title  "FlowTable Size, vector"
vector 287  randPrefNet.R4I6.ipcProcess[8].flowAllocator.faiTable  ft-size:vector  ETV
attr source  FT_FlowTableSize
attr title  "FlowTable Size, vector"
vector 288  randPrefNet.R4I6.ipcProcess[9].flowAllocator.faiTable  ft-size:vector  ETV
attr source  FT_FlowTableSize
attr title  "FlowTable Size, vector"
vector 289  randPrefNet.R4I6.ipcProcess[10].flowAllocator.faiTable  ft-size:vector  ETV
attr source  FT_FlowTableSize
attr title  "FlowTable Size, vector"
vector 291  randPrefNet.R4I7.ipcProcess[0].flowAllocator.faiTable  ft-size:vector  ETV
attr source  FT_FlowTableSize
attr title  "FlowTable Size, vector"
vector 292  randPrefNet.R4I7.ipcProcess[1].flowAllocator.faiTable  ft-size:vector  ETV
attr source  FT_FlowTableSize
attr title  "FlowTable Size, vector"
vector 293  randPrefNet.R4I7.ipcProcess[2].flowAllocator.faiTable  ft-size:vector  ETV
attr source  FT_FlowTableSize
attr title  "FlowTable Size, vector"
vector 294  randPrefNet.R4I7.ipcProcess[3].flowAllocator.faiTable  ft-size:vector  ETV
attr source  FT_FlowTableSize
attr title  "FlowTable Size, vector"
vector 302  randPrefNet.R4I9.ipcProcess[2].flowAllocator.faiTable  ft-size:vector  ETV
attr source  FT_FlowTableSize
attr title  "FlowTable Size, vector"
vector 303  randPrefNet.R4I9.ipcProcess[3].flowAllocator.faiTable  ft-size:vector  ETV
attr source  FT_FlowTableSize
attr title  "FlowTable Size, vector"
vector 310  randPrefNet.R4Ia.ipcProcess[5].flowAllocator.faiTable  ft-size:vector  ETV
attr source  FT_FlowTableSize
attr title  "FlowTable Size, vector"
vector 315  randPrefNet.R4Ib.ipcProcess[3].flowAllocator.faiTable  ft-size:vector  ETV
attr source  FT_FlowTableSize
attr title  "FlowTable Size, vector"
vector 317  randPrefNet.R4Ic.ipcProcess[0].flowAllocator.faiTable  ft-size:vector  ETV
attr source  FT_FlowTableSize
attr title  "FlowTable Size, vector"
vector 329  randPrefNet.R4Ie.ipcProcess[6].flowAllocator.faiTable  ft-size:vector  ETV
attr source  FT_FlowTableSize
attr title  "FlowTable Size, vector"
vector 331  randPrefNet.R5I1.ipcProcess[0].flowAllocator.faiTable  ft-size:vector  ETV
attr source  FT_FlowTableSize
attr title  "FlowTable Size, vector"
vector 332  randPrefNet.R5I1.ipcProcess[1].flowAllocator.faiTable  ft-size:vector  ETV
attr source  FT_FlowTableSize
attr title  "FlowTable Size, vector"
vector 333  randPrefNet.R5I1.ipcProcess[2].flowAllocator.faiTable  ft-size:vector  ETV
attr source  FT_FlowTableSize
attr title  "FlowTable Size, vector"
vector 335  randPrefNet.R5I1.ipcProcess[4].flowAllocator.faiTable  ft-size:vector  ETV
attr source  FT_FlowTableSize
attr title  "FlowTable Size, vector"
vector 336  randPrefNet.R5I1.ipcProcess[5].flowAllocator.faiTable  ft-size:vector  ETV
attr source  FT_FlowTableSize
attr title  "FlowTable Size, vector"
vector 338  randPrefNet.R5I2.ipcProcess[0].flowAllocator.faiTable  ft-size:vector  ETV
attr source  FT_FlowTableSize
attr title  "FlowTable Size, vector"
vector 339  randPrefNet.R5I2.ipcProcess[1].flowAllocator.faiTable  ft-size:vector  ETV
attr source  FT_FlowTableSize
attr title  "FlowTable Size, vector"
vector 341  randPrefNet.R5I3.ipcProcess[0].flowAllocator.faiTable  ft-size:vector  ETV
attr source  FT_FlowTableSize
attr title  "FlowTable Size, vector"
vector 342  randPrefNet.R5I3.ipcProcess[1].flowAllocator.faiTable  ft-size:vector  ETV
attr source  FT_FlowTableSize
attr title  "FlowTable Size, vector"
vector 343  randPrefNet.R5I3.ipcProcess[2].flowAllocator.faiTable  ft-size:vector  ETV
attr source  FT_FlowTableSize
attr title  "FlowTable Size, vector"
vector 344  randPrefNet.R5I3.ipcProcess[3].flowAllocator.faiTable  ft-size:vector  ETV
attr source  FT_FlowTableSize
attr title  "FlowTable Size, vector"
vector 345  randPrefNet.R5I3.ipcProcess[4].flowAllocator.faiTable  ft-size:vector  ETV
attr source  FT_FlowTableSize
attr title  "FlowTable Size, vector"
vector 346  randPrefNet.R5I3.ipcProcess[5].flowAllocator.faiTable  ft-size:vector  ETV
attr source  FT_FlowTableSize
attr title  "FlowTable Size, vector"
vector 347  randPrefNet.R5I3.ipcProcess[6].flowAllocator.faiTable  ft-size:vector  ETV
attr source  FT_FlowTableSize
attr title  "FlowTable Size, vector"
vector 350  randPrefNet.R5I4.ipcProcess[1].flowAllocator.faiTable  ft-size:vector  ETV
attr source  FT_FlowTableSize
attr title  "FlowTable Size, vector"
vector 351  randPrefNet.R5I4.ipcProcess[2].flowAllocator.faiTable  ft-size:vector  ETV
attr source  FT_FlowTableSize
attr title  "FlowTable Size, vector"
vector 352  randPrefNet.R5I4.ipcProcess[3].flowAllocator.faiTable  ft-size:vector  ETV
attr source  FT_FlowTableSize
attr title  "FlowTable Size, vector"
vector 353  randPrefNet.R5I4.ipcProcess[4].flowAllocator.faiTable  ft-size:vector  ETV
attr source  FT_FlowTableSize
attr title  "FlowTable Size, vector"
vector 355  randPrefNet.R5I5.ipcProcess[0].flowAllocator.faiTable  ft-size:vector  ETV
attr source  FT_FlowTableSize
attr title  "FlowTable Size, vector"
vector 356  randPrefNet.R5I5.ipcProcess[1].flowAllocator.faiTable  ft-size:vector  ETV
attr source  FT_FlowTableSize
attr title  "FlowTable Size, vector"
vector 359  randPrefNet.R5I6.ipcProcess[1].flowAllocator.faiTable  ft-size:vector  ETV
attr source  FT_FlowTableSize
attr title  "FlowTable Size, vector"
vector 360  randPrefNet.R5I6.ipcProcess[2].flowAllocator.faiTable  ft-size:vector  ETV
attr source  FT_FlowTableSize
attr title  "FlowTable Size, vector"
vector 363  randPrefNet.R5I7.ipcProcess[1].flowAllocator.faiTable  ft-size:vector  ETV
attr source  FT_FlowTableSize
attr title  "FlowTable Size, vector"
vector 364  randPrefNet.R5I7.ipcProcess[2].flowAllocator.faiTable  ft-size:vector  ETV
attr source  FT_FlowTableSize
attr title  "FlowTable Size, vector"
vector 365  randPrefNet.R5I7.ipcProcess[3].flowAllocator.faiTable  ft-size:vector  ETV
attr source  FT_FlowTableSize
attr title  "FlowTable Size, vector"
vector 366  randPrefNet.R5I7.ipcProcess[4].flowAllocator.faiTable  ft-size:vector  ETV
attr source  FT_FlowTableSize
attr title  "FlowTable Size, vector"
vector 372  randPrefNet.R5I8.ipcProcess[3].flowAllocator.faiTable  ft-size:vector  ETV
attr source  FT_FlowTableSize
attr title  "FlowTable Size, vector"
vector 373  randPrefNet.R5I8.ipcProcess[4].flowAllocator.faiTable  ft-size:vector  ETV
attr source  FT_FlowTableSize
attr title  "FlowTable Size, vector"
vector 374  randPrefNet.R5I8.ipcProcess[5].flowAllocator.faiTable  ft-size:vector  ETV
attr source  FT_FlowTableSize
attr title  "FlowTable Size, vector"
vector 376  randPrefNet.R5I9.ipcProcess[0].flowAllocator.faiTable  ft-size:vector  ETV
attr source  FT_FlowTableSize
attr title  "FlowTable Size, vector"
vector 377  randPrefNet.R5I9.ipcProcess[1].flowAllocator.faiTable  ft-size:vector  ETV
attr source  FT_FlowTableSize
attr title  "FlowTable Size, vector"
vector 383  randPrefNet.R5Ia.ipcProcess[4].flowAllocator.faiTable  ft-size:vector  ETV
attr source  FT_FlowTableSize
attr title  "FlowTable Size, vector"
vector 384  randPrefNet.R5Ia.ipcProcess[5].flowAllocator.faiTable  ft-size:vector  ETV
attr source  FT_FlowTableSize
attr title  "FlowTable Size, vector"
vector 386  randPrefNet.R5Ia.ipcProcess[7].flowAllocator.faiTable  ft-size:vector  ETV
attr source  FT_FlowTableSize
attr title  "FlowTable Size, vector"
vector 387  randPrefNet.R5Ia.ipcProcess[8].flowAllocator.faiTable  ft-size:vector  ETV
attr source  FT_FlowTableSize
attr title  "FlowTable Size, vector"
vector 388  randPrefNet.R5Ia.ipcProcess[9].flowAllocator.faiTable  ft-size:vector  ETV
attr source  FT_FlowTableSize
attr title  "FlowTable Size, vector"
vector 389  randPrefNet.R5Ia.ipcProcess[10].flowAllocator.faiTable  ft-size:vector  ETV